# vtk DataFile Version 2.0
3D Unstructured Grid of Linear Triangles
ASCII
DATASET UNSTRUCTURED_GRID
FIELD FieldData  1
TIME 1 1 double
           0.00000
POINTS      180 float
          0.0000E+00      5.0000E+00      0.0000E+00
          0.0000E+00      2.5000E+00      0.0000E+00
          0.0000E+00      0.0000E+00      0.0000E+00
          2.5000E+00      5.0000E+00      0.0000E+00
          2.5000E+00      2.5000E+00      0.0000E+00
          2.5000E+00      0.0000E+00      0.0000E+00
          5.0000E+00      5.0000E+00      0.0000E+00
          5.0000E+00      2.5000E+00      0.0000E+00
          5.0000E+00      0.0000E+00      0.0000E+00
          0.0000E+00      5.0000E+00     -5.0000E-02
          0.0000E+00      2.5000E+00     -5.0000E-02
          0.0000E+00      0.0000E+00     -5.0000E-02
          2.5000E+00      5.0000E+00     -5.0000E-02
          2.5000E+00      2.5000E+00     -5.0000E-02
          2.5000E+00      0.0000E+00     -5.0000E-02
          5.0000E+00      5.0000E+00     -5.0000E-02
          5.0000E+00      2.5000E+00     -5.0000E-02
          5.0000E+00      0.0000E+00     -5.0000E-02
          0.0000E+00      5.0000E+00     -1.0000E-01
          0.0000E+00      2.5000E+00     -1.0000E-01
          0.0000E+00      0.0000E+00     -1.0000E-01
          2.5000E+00      5.0000E+00     -1.0000E-01
          2.5000E+00      2.5000E+00     -1.0000E-01
          2.5000E+00      0.0000E+00     -1.0000E-01
          5.0000E+00      5.0000E+00     -1.0000E-01
          5.0000E+00      2.5000E+00     -1.0000E-01
          5.0000E+00      0.0000E+00     -1.0000E-01
          0.0000E+00      5.0000E+00     -1.5000E-01
          0.0000E+00      2.5000E+00     -1.5000E-01
          0.0000E+00      0.0000E+00     -1.5000E-01
          2.5000E+00      5.0000E+00     -1.5000E-01
          2.5000E+00      2.5000E+00     -1.5000E-01
          2.5000E+00      0.0000E+00     -1.5000E-01
          5.0000E+00      5.0000E+00     -1.5000E-01
          5.0000E+00      2.5000E+00     -1.5000E-01
          5.0000E+00      0.0000E+00     -1.5000E-01
          0.0000E+00      5.0000E+00     -2.0000E-01
          0.0000E+00      2.5000E+00     -2.0000E-01
          0.0000E+00      0.0000E+00     -2.0000E-01
          2.5000E+00      5.0000E+00     -2.0000E-01
          2.5000E+00      2.5000E+00     -2.0000E-01
          2.5000E+00      0.0000E+00     -2.0000E-01
          5.0000E+00      5.0000E+00     -2.0000E-01
          5.0000E+00      2.5000E+00     -2.0000E-01
          5.0000E+00      0.0000E+00     -2.0000E-01
          0.0000E+00      5.0000E+00     -2.5000E-01
          0.0000E+00      2.5000E+00     -2.5000E-01
          0.0000E+00      0.0000E+00     -2.5000E-01
          2.5000E+00      5.0000E+00     -2.5000E-01
          2.5000E+00      2.5000E+00     -2.5000E-01
          2.5000E+00      0.0000E+00     -2.5000E-01
          5.0000E+00      5.0000E+00     -2.5000E-01
          5.0000E+00      2.5000E+00     -2.5000E-01
          5.0000E+00      0.0000E+00     -2.5000E-01
          0.0000E+00      5.0000E+00     -3.0000E-01
          0.0000E+00      2.5000E+00     -3.0000E-01
          0.0000E+00      0.0000E+00     -3.0000E-01
          2.5000E+00      5.0000E+00     -3.0000E-01
          2.5000E+00      2.5000E+00     -3.0000E-01
          2.5000E+00      0.0000E+00     -3.0000E-01
          5.0000E+00      5.0000E+00     -3.0000E-01
          5.0000E+00      2.5000E+00     -3.0000E-01
          5.0000E+00      0.0000E+00     -3.0000E-01
          0.0000E+00      5.0000E+00     -4.0000E-01
          0.0000E+00      2.5000E+00     -4.0000E-01
          0.0000E+00      0.0000E+00     -4.0000E-01
          2.5000E+00      5.0000E+00     -4.0000E-01
          2.5000E+00      2.5000E+00     -4.0000E-01
          2.5000E+00      0.0000E+00     -4.0000E-01
          5.0000E+00      5.0000E+00     -4.0000E-01
          5.0000E+00      2.5000E+00     -4.0000E-01
          5.0000E+00      0.0000E+00     -4.0000E-01
          0.0000E+00      5.0000E+00     -5.0000E-01
          0.0000E+00      2.5000E+00     -5.0000E-01
          0.0000E+00      0.0000E+00     -5.0000E-01
          2.5000E+00      5.0000E+00     -5.0000E-01
          2.5000E+00      2.5000E+00     -5.0000E-01
          2.5000E+00      0.0000E+00     -5.0000E-01
          5.0000E+00      5.0000E+00     -5.0000E-01
          5.0000E+00      2.5000E+00     -5.0000E-01
          5.0000E+00      0.0000E+00     -5.0000E-01
          0.0000E+00      5.0000E+00     -6.0000E-01
          0.0000E+00      2.5000E+00     -6.0000E-01
          0.0000E+00      0.0000E+00     -6.0000E-01
          2.5000E+00      5.0000E+00     -6.0000E-01
          2.5000E+00      2.5000E+00     -6.0000E-01
          2.5000E+00      0.0000E+00     -6.0000E-01
          5.0000E+00      5.0000E+00     -6.0000E-01
          5.0000E+00      2.5000E+00     -6.0000E-01
          5.0000E+00      0.0000E+00     -6.0000E-01
          0.0000E+00      5.0000E+00     -7.0000E-01
          0.0000E+00      2.5000E+00     -7.0000E-01
          0.0000E+00      0.0000E+00     -7.0000E-01
          2.5000E+00      5.0000E+00     -7.0000E-01
          2.5000E+00      2.5000E+00     -7.0000E-01
          2.5000E+00      0.0000E+00     -7.0000E-01
          5.0000E+00      5.0000E+00     -7.0000E-01
          5.0000E+00      2.5000E+00     -7.0000E-01
          5.0000E+00      0.0000E+00     -7.0000E-01
          0.0000E+00      5.0000E+00     -8.0000E-01
          0.0000E+00      2.5000E+00     -8.0000E-01
          0.0000E+00      0.0000E+00     -8.0000E-01
          2.5000E+00      5.0000E+00     -8.0000E-01
          2.5000E+00      2.5000E+00     -8.0000E-01
          2.5000E+00      0.0000E+00     -8.0000E-01
          5.0000E+00      5.0000E+00     -8.0000E-01
          5.0000E+00      2.5000E+00     -8.0000E-01
          5.0000E+00      0.0000E+00     -8.0000E-01
          0.0000E+00      5.0000E+00     -9.0000E-01
          0.0000E+00      2.5000E+00     -9.0000E-01
          0.0000E+00      0.0000E+00     -9.0000E-01
          2.5000E+00      5.0000E+00     -9.0000E-01
          2.5000E+00      2.5000E+00     -9.0000E-01
          2.5000E+00      0.0000E+00     -9.0000E-01
          5.0000E+00      5.0000E+00     -9.0000E-01
          5.0000E+00      2.5000E+00     -9.0000E-01
          5.0000E+00      0.0000E+00     -9.0000E-01
          0.0000E+00      5.0000E+00     -1.0000E+00
          0.0000E+00      2.5000E+00     -1.0000E+00
          0.0000E+00      0.0000E+00     -1.0000E+00
          2.5000E+00      5.0000E+00     -1.0000E+00
          2.5000E+00      2.5000E+00     -1.0000E+00
          2.5000E+00      0.0000E+00     -1.0000E+00
          5.0000E+00      5.0000E+00     -1.0000E+00
          5.0000E+00      2.5000E+00     -1.0000E+00
          5.0000E+00      0.0000E+00     -1.0000E+00
          0.0000E+00      5.0000E+00     -1.5000E+00
          0.0000E+00      2.5000E+00     -1.5000E+00
          0.0000E+00      0.0000E+00     -1.5000E+00
          2.5000E+00      5.0000E+00     -1.5000E+00
          2.5000E+00      2.5000E+00     -1.5000E+00
          2.5000E+00      0.0000E+00     -1.5000E+00
          5.0000E+00      5.0000E+00     -1.5000E+00
          5.0000E+00      2.5000E+00     -1.5000E+00
          5.0000E+00      0.0000E+00     -1.5000E+00
          0.0000E+00      5.0000E+00     -2.0000E+00
          0.0000E+00      2.5000E+00     -2.0000E+00
          0.0000E+00      0.0000E+00     -2.0000E+00
          2.5000E+00      5.0000E+00     -2.0000E+00
          2.5000E+00      2.5000E+00     -2.0000E+00
          2.5000E+00      0.0000E+00     -2.0000E+00
          5.0000E+00      5.0000E+00     -2.0000E+00
          5.0000E+00      2.5000E+00     -2.0000E+00
          5.0000E+00      0.0000E+00     -2.0000E+00
          0.0000E+00      5.0000E+00     -2.5000E+00
          0.0000E+00      2.5000E+00     -2.5000E+00
          0.0000E+00      0.0000E+00     -2.5000E+00
          2.5000E+00      5.0000E+00     -2.5000E+00
          2.5000E+00      2.5000E+00     -2.5000E+00
          2.5000E+00      0.0000E+00     -2.5000E+00
          5.0000E+00      5.0000E+00     -2.5000E+00
          5.0000E+00      2.5000E+00     -2.5000E+00
          5.0000E+00      0.0000E+00     -2.5000E+00
          0.0000E+00      5.0000E+00     -3.0000E+00
          0.0000E+00      2.5000E+00     -3.0000E+00
          0.0000E+00      0.0000E+00     -3.0000E+00
          2.5000E+00      5.0000E+00     -3.0000E+00
          2.5000E+00      2.5000E+00     -3.0000E+00
          2.5000E+00      0.0000E+00     -3.0000E+00
          5.0000E+00      5.0000E+00     -3.0000E+00
          5.0000E+00      2.5000E+00     -3.0000E+00
          5.0000E+00      0.0000E+00     -3.0000E+00
          0.0000E+00      5.0000E+00     -4.0000E+00
          0.0000E+00      2.5000E+00     -4.0000E+00
          0.0000E+00      0.0000E+00     -4.0000E+00
          2.5000E+00      5.0000E+00     -4.0000E+00
          2.5000E+00      2.5000E+00     -4.0000E+00
          2.5000E+00      0.0000E+00     -4.0000E+00
          5.0000E+00      5.0000E+00     -4.0000E+00
          5.0000E+00      2.5000E+00     -4.0000E+00
          5.0000E+00      0.0000E+00     -4.0000E+00
          0.0000E+00      5.0000E+00     -5.0000E+00
          0.0000E+00      2.5000E+00     -5.0000E+00
          0.0000E+00      0.0000E+00     -5.0000E+00
          2.5000E+00      5.0000E+00     -5.0000E+00
          2.5000E+00      2.5000E+00     -5.0000E+00
          2.5000E+00      0.0000E+00     -5.0000E+00
          5.0000E+00      5.0000E+00     -5.0000E+00
          5.0000E+00      2.5000E+00     -5.0000E+00
          5.0000E+00      0.0000E+00     -5.0000E+00
CELLS      456     2280
4          0          3          4          9
4          4          9         12         13
4          3          4          9         12
4          3          6          7         12
4          7         12         15         16
[...]
POINT_DATA      180
SCALARS PRESSURE float
LOOKUP_TABLE default
  -2.0000000000000000     
  -2.0000000000000000     
  -2.0000000000000000     
  -2.0000000000000000     
  -4.5348717070426758     
  -2.0000000000000000     
  -2.0000000000000000     
  -2.0000000000000000     
  -2.0000000000000000     
  -1.9500000000000002     
  -1.9500000000000002     
  -1.9500000000000002     
  -1.9500000000000002     
  -3.9412430829341023     
  -1.9500000000000002     
  -1.9500000000000002     
  -1.9500000000000002     
  -1.9500000000000002     
  -1.8999999999999999     
  -1.8999999999999999     
  -1.8999999999999999     
  -1.8999999999999999     
  -3.1540572606407080     
  -1.8999999999999999     
  -1.8999999999999999     
  -1.8999999999999999     
  -1.8999999999999999     
  -1.8500000000000005     
  -1.8500000000000005     
  -1.8500000000000005     
  -1.8500000000000005     
  -2.6345564852824399     
  -1.8500000000000005     
  -1.8500000000000005     
  -1.8500000000000005     
  -1.8500000000000005     
  -1.8000000000000005     
  -1.8000000000000005     
  -1.8000000000000005     
  -1.8000000000000005     
  -2.2639965551995980     
  -1.8000000000000005     
  -1.8000000000000005     
  -1.8000000000000005     
  -1.8000000000000005     
  -1.7500000000000004     
  -1.7500000000000004     
  -1.7500000000000004     
  -1.7500000000000004     
  -2.0333106469703246     
  -1.7500000000000004     
  -1.7500000000000004     
  -1.7500000000000004     
  -1.7500000000000004     
  -1.7000000000000004     
  -1.7000000000000004     
  -1.7000000000000004     
  -1.7000000000000004     
  -1.8639009061947489     
  -1.7000000000000004     
  -1.7000000000000004     
  -1.7000000000000004     
  -1.7000000000000004     
  -1.6000000000000003     
  -1.6000000000000003     
  -1.6000000000000003     
  -1.6000000000000003     
  -1.6605436205887139     
  -1.6000000000000003     
  -1.6000000000000003     
  -1.6000000000000003     
  -1.6000000000000003     
  -1.5000000000000002     
  -1.5000000000000002     
  -1.5000000000000002     
  -1.5000000000000002     
  -1.5223654478724562     
  -1.5000000000000002     
  -1.5000000000000002     
  -1.5000000000000002     
  -1.5000000000000002     
  -1.3999999999999999     
  -1.3999999999999999     
  -1.3999999999999999     
  -1.3999999999999999     
  -1.4082962151908234     
  -1.3999999999999999     
  -1.3999999999999999     
  -1.3999999999999999     
  -1.3999999999999999     
  -1.2999999999999998     
  -1.2999999999999998     
  -1.2999999999999998     
  -1.2999999999999998     
  -1.3033018575750011     
  -1.2999999999999998     
  -1.2999999999999998     
  -1.2999999999999998     
  -1.2999999999999998     
  -1.2000000000000002     
  -1.2000000000000002     
  -1.2000000000000002     
  -1.2000000000000002     
  -1.2021284410301716     
  -1.2000000000000002     
  -1.2000000000000002     
  -1.2000000000000002     
  -1.2000000000000002     
  -1.1000000000000001     
  -1.1000000000000001     
  -1.1000000000000001     
  -1.1000000000000001     
  -1.1016205355208712     
  -1.1000000000000001     
  -1.1000000000000001     
  -1.1000000000000001     
  -1.1000000000000001     
  -1.0000000000000000     
  -1.0000000000000000     
  -1.0000000000000000     
  -1.0000000000000000     
  -1.0010157804950583     
  -1.0000000000000000     
  -1.0000000000000000     
  -1.0000000000000000     
  -1.0000000000000000     
 -0.50000000000000000     
 -0.50000000000000000     
 -0.50000000000000000     
 -0.50000000000000000     
 -0.50000120762173395     
 -0.50000000000000000     
 -0.50000000000000000     
 -0.50000000000000000     
 -0.50000000000000000     
   0.0000000000000000     
   0.0000000000000000     
   0.0000000000000000     
   0.0000000000000000     
 -6.27221745434034933E-007
   0.0000000000000000     
   0.0000000000000000     
   0.0000000000000000     
   0.0000000000000000     
  0.50000000000000000     
  0.50000000000000000     
  0.50000000000000000     
  0.50000000000000000     
  0.49999957727780153     
  0.50000000000000000     
  0.50000000000000000     
  0.50000000000000000     
  0.50000000000000000     
   1.0000000000000000     
   1.0000000000000000     
   1.0000000000000000     
   1.0000000000000000     
  0.99999971330969206     
   1.0000000000000000     
   1.0000000000000000     
   1.0000000000000000     
   1.0000000000000000     
   2.0000000000000000     
   2.0000000000000000     
   2.0000000000000000     
   2.0000000000000000     
   1.9999998477213170     
   2.0000000000000000     
   2.0000000000000000     
   2.0000000000000000     
   2.0000000000000000     
   3.0000000000000004     
   3.0000000000000004     
   3.0000000000000004     
   3.0000000000000004     
   2.9999998846456619     
   3.0000000000000004     
   3.0000000000000004     
   3.0000000000000004     
   3.0000000000000004     
SCALARS SATURATION float
LOOKUP_TABLE default
  0.34705948956611438     
  0.34705948956611438     
  0.34705948956611438     
  0.34705948956611438     
  0.26934960197157698     
  0.34705948956611432     
  0.34705948956611438     
  0.34705948956611432     
  0.34705948956611438     
  0.34987011055248296     
  0.34987011055248302     
  0.34987011055248302     
  0.34987011055248302     
  0.28098604499198288     
  0.34987011055248302     
  0.34987011055248302     
  0.34987011055248302     
  0.34987011055248296     
  0.35278140791709894     
  0.35278140791709900     
  0.35278140791709894     
  0.35278140791709900     
  0.30082177456852288     
  0.35278140791709900     
  0.35278140791709894     
  0.35278140791709900     
  0.35278140791709894     
  0.35579970281143997     
  0.35579970281144002     
  0.35579970281144002     
  0.35579970281144002     
  0.31813746141621435     
  0.35579970281144002     
  0.35579970281144002     
  0.35579970281144002     
  0.35579970281143997     
  0.35893189187377200     
  0.35893189187377206     
  0.35893189187377200     
  0.35893189187377206     
  0.33367374903297620     
  0.35893189187377206     
  0.35893189187377200     
  0.35893189187377206     
  0.35893189187377200     
  0.36218551668681953     
  0.36218551668681959     
  0.36218551668681959     
  0.36218551668681959     
  0.34524001195058851     
  0.36218551668681959     
  0.36218551668681959     
  0.36218551668681959     
  0.36218551668681953     
  0.36556884378302607     
  0.36556884378302612     
  0.36556884378302612     
  0.36556884378302612     
  0.35494943759421993     
  0.36556884378302612     
  0.36556884378302612     
  0.36556884378302612     
  0.36556884378302607     
  0.37276186557557112     
  0.37276186557557117     
  0.37276186557557117     
  0.37276186557557117     
  0.36833621146777817     
  0.37276186557557117     
  0.37276186557557117     
  0.37276186557557117     
  0.37276186557557112     
  0.38059549922495689     
  0.38059549922495700     
  0.38059549922495695     
  0.38059549922495700     
  0.37878286658096383     
  0.38059549922495700     
  0.38059549922495695     
  0.38059549922495700     
  0.38059549922495689     
  0.38917363816444595     
  0.38917363816444606     
  0.38917363816444600     
  0.38917363816444606     
  0.38843070866935792     
  0.38917363816444606     
  0.38917363816444600     
  0.38917363816444606     
  0.38917363816444595     
  0.39862564488556396     
  0.39862564488556401     
  0.39862564488556396     
  0.39862564488556401     
  0.39829800094164969     
  0.39862564488556401     
  0.39862564488556396     
  0.39862564488556401     
  0.39862564488556396     
  0.40911501315512067     
  0.40911501315512078     
  0.40911501315512072     
  0.40911501315512078     
  0.40887960302680348     
  0.40911501315512078     
  0.40911501315512072     
  0.40911501315512078     
  0.40911501315512067     
  0.42085192652601960     
  0.42085192652601966     
  0.42085192652601960     
  0.42085192652601966     
  0.42065043542814129     
  0.42085192652601966     
  0.42085192652601960     
  0.42085192652601966     
  0.42085192652601960     
  0.43411196437317834     
  0.43411196437317839     
  0.43411196437317839     
  0.43411196437317839     
  0.43396847993938248     
  0.43411196437317839     
  0.43411196437317839     
  0.43411196437317839     
  0.43411196437317834     
  0.54315545943926802     
  0.54315545943926802     
  0.54315545943926802     
  0.54315545943926802     
  0.54315504287054672     
  0.54315545943926802     
  0.54315545943926802     
  0.54315545943926802     
  0.54315545943926802     
  0.99999999999999989     
   1.0000000000000000     
   1.0000000000000000     
   1.0000000000000000     
  0.99999998612099705     
   1.0000000000000000     
   1.0000000000000000     
   1.0000000000000000     
  0.99999999999999989     
  0.99999999999999989     
   1.0000000000000000     
   1.0000000000000000     
   1.0000000000000000     
   1.0000000000000000     
   1.0000000000000000     
   1.0000000000000000     
   1.0000000000000000     
  0.99999999999999989     
  0.99999999999999989     
   1.0000000000000000     
   1.0000000000000000     
   1.0000000000000000     
   1.0000000000000000     
   1.0000000000000000     
   1.0000000000000000     
   1.0000000000000000     
  0.99999999999999989     
  0.99999999999999989     
   1.0000000000000000     
   1.0000000000000000     
   1.0000000000000000     
   1.0000000000000000     
   1.0000000000000000     
   1.0000000000000000     
   1.0000000000000000     
  0.99999999999999989     
   1.0000000000000000     
  0.99999999999999989     
   1.0000000000000000     
  0.99999999999999989     
   1.0000000000000000     
   1.0000000000000000     
   1.0000000000000000     
   1.0000000000000000     
   1.0000000000000000     
SCALARS RDF float
LOOKUP_TABLE default
   0.0000000000000000     
   0.0000000000000000     
   0.0000000000000000     
   0.0000000000000000     
   60000.000000000000     
   0.0000000000000000     
   0.0000000000000000     
   0.0000000000000000     
   0.0000000000000000     
   0.0000000000000000     
   0.0000000000000000     
   0.0000000000000000     
   0.0000000000000000     
   41800.000000000000     
   0.0000000000000000     
   0.0000000000000000     
   0.0000000000000000     
   0.0000000000000000     
   0.0000000000000000     
   0.0000000000000000     
   0.0000000000000000     
   0.0000000000000000     
   23600.000000000000     
   0.0000000000000000     
   0.0000000000000000     
   0.0000000000000000     
   0.0000000000000000     
   0.0000000000000000     
   0.0000000000000000     
   0.0000000000000000     
   0.0000000000000000     
   16430.000000000000     
   0.0000000000000000     
   0.0000000000000000     
   0.0000000000000000     
   0.0000000000000000     
   0.0000000000000000     
   0.0000000000000000     
   0.0000000000000000     
   0.0000000000000000     
   9260.0000000000000     
   0.0000000000000000     
   0.0000000000000000     
   0.0000000000000000     
   0.0000000000000000     
   0.0000000000000000     
   0.0000000000000000     
   0.0000000000000000     
   0.0000000000000000     
   6450.0000000000000     
   0.0000000000000000     
   0.0000000000000000     
   0.0000000000000000     
   0.0000000000000000     
   0.0000000000000000     
   0.0000000000000000     
   0.0000000000000000     
   0.0000000000000000     
   3639.9999999999986     
   0.0000000000000000     
   0.0000000000000000     
   0.0000000000000000     
   0.0000000000000000     
   0.0000000000000000     
   0.0000000000000000     
   0.0000000000000000     
   0.0000000000000000     
   1430.0000000000000     
   0.0000000000000000     
   0.0000000000000000     
   0.0000000000000000     
   0.0000000000000000     
   0.0000000000000000     
   0.0000000000000000     
   0.0000000000000000     
   0.0000000000000000     
   562.00000000000000     
   0.0000000000000000     
   0.0000000000000000     
   0.0000000000000000     
   0.0000000000000000     
   0.0000000000000000     
   0.0000000000000000     
   0.0000000000000000     
   0.0000000000000000     
   220.99999999999986     
   0.0000000000000000     
   0.0000000000000000     
   0.0000000000000000     
   0.0000000000000000     
   0.0000000000000000     
   0.0000000000000000     
   0.0000000000000000     
   0.0000000000000000     
   86.799999999999997     
   0.0000000000000000     
   0.0000000000000000     
   0.0000000000000000     
   0.0000000000000000     
   0.0000000000000000     
   0.0000000000000000     
   0.0000000000000000     
   0.0000000000000000     
   86.799999999999997     
   0.0000000000000000     
   0.0000000000000000     
   0.0000000000000000     
   0.0000000000000000     
   0.0000000000000000     
   0.0000000000000000     
   0.0000000000000000     
   0.0000000000000000     
   86.799999999999997     
   0.0000000000000000     
   0.0000000000000000     
   0.0000000000000000     
   0.0000000000000000     
   0.0000000000000000     
   0.0000000000000000     
   0.0000000000000000     
   0.0000000000000000     
   86.799999999999997     
   0.0000000000000000     
   0.0000000000000000     
   0.0000000000000000     
   0.0000000000000000     
   0.0000000000000000     
   0.0000000000000000     
   0.0000000000000000     
   0.0000000000000000     
   0.0000000000000000     
   0.0000000000000000     
   0.0000000000000000     
   0.0000000000000000     
   0.0000000000000000     
   0.0000000000000000     
   0.0000000000000000     
   0.0000000000000000     
   0.0000000000000000     
   0.0000000000000000     
   0.0000000000000000     
   0.0000000000000000     
   0.0000000000000000     
   0.0000000000000000     
   0.0000000000000000     
   0.0000000000000000     
   0.0000000000000000     
   0.0000000000000000     
   0.0000000000000000     
   0.0000000000000000     
   0.0000000000000000     
   0.0000000000000000     
   0.0000000000000000     
   0.0000000000000000     
   0.0000000000000000     
   0.0000000000000000     
   0.0000000000000000     
   0.0000000000000000     
   0.0000000000000000     
   0.0000000000000000     
   0.0000000000000000     
   0.0000000000000000     
   0.0000000000000000     
   0.0000000000000000     
   0.0000000000000000     
   0.0000000000000000     
   0.0000000000000000     
   0.0000000000000000     
   0.0000000000000000     
   0.0000000000000000     
   0.0000000000000000     
   0.0000000000000000     
   0.0000000000000000     
   0.0000000000000000     
   0.0000000000000000     
   0.0000000000000000     
   0.0000000000000000     
   0.0000000000000000     
   0.0000000000000000     
   0.0000000000000000     
SCALARS TraspFlux float
LOOKUP_TABLE default
   0.0000000000000000     
   0.0000000000000000     
   0.0000000000000000     
   0.0000000000000000     
  1.31308908276879730E-007
   0.0000000000000000     
   0.0000000000000000     
   0.0000000000000000     
   0.0000000000000000     
   0.0000000000000000     
   0.0000000000000000     
   0.0000000000000000     
   0.0000000000000000     
  1.84334053902091063E-007
   0.0000000000000000     
   0.0000000000000000     
   0.0000000000000000     
   0.0000000000000000     
   0.0000000000000000     
   0.0000000000000000     
   0.0000000000000000     
   0.0000000000000000     
  1.05124099481620999E-007
   0.0000000000000000     
   0.0000000000000000     
   0.0000000000000000     
   0.0000000000000000     
   0.0000000000000000     
   0.0000000000000000     
   0.0000000000000000     
   0.0000000000000000     
  7.36521326518263752E-008
   0.0000000000000000     
   0.0000000000000000     
   0.0000000000000000     
   0.0000000000000000     
   0.0000000000000000     
   0.0000000000000000     
   0.0000000000000000     
   0.0000000000000000     
  4.16875846483790469E-008
   0.0000000000000000     
   0.0000000000000000     
   0.0000000000000000     
   0.0000000000000000     
   0.0000000000000000     
   0.0000000000000000     
   0.0000000000000000     
   0.0000000000000000     
  2.91070492583757137E-008
   0.0000000000000000     
   0.0000000000000000     
   0.0000000000000000     
   0.0000000000000000     
   0.0000000000000000     
   0.0000000000000000     
   0.0000000000000000     
   0.0000000000000000     
  2.46775480201513729E-008
   0.0000000000000000     
   0.0000000000000000     
   0.0000000000000000     
   0.0000000000000000     
   0.0000000000000000     
   0.0000000000000000     
   0.0000000000000000     
   0.0000000000000000     
  1.29431586032619683E-008
   0.0000000000000000     
   0.0000000000000000     
   0.0000000000000000     
   0.0000000000000000     
   0.0000000000000000     
   0.0000000000000000     
   0.0000000000000000     
   0.0000000000000000     
  5.08884693963446752E-009
   0.0000000000000000     
   0.0000000000000000     
   0.0000000000000000     
   0.0000000000000000     
   0.0000000000000000     
   0.0000000000000000     
   0.0000000000000000     
   0.0000000000000000     
  2.00125932976213459E-009
   0.0000000000000000     
   0.0000000000000000     
   0.0000000000000000     
   0.0000000000000000     
   0.0000000000000000     
   0.0000000000000000     
   0.0000000000000000     
   0.0000000000000000     
  7.85947179576905089E-010
   0.0000000000000000     
   0.0000000000000000     
   0.0000000000000000     
   0.0000000000000000     
   0.0000000000000000     
   0.0000000000000000     
   0.0000000000000000     
   0.0000000000000000     
  7.86077436392272448E-010
   0.0000000000000000     
   0.0000000000000000     
   0.0000000000000000     
   0.0000000000000000     
   0.0000000000000000     
   0.0000000000000000     
   0.0000000000000000     
   0.0000000000000000     
  7.86182282229737090E-010
   0.0000000000000000     
   0.0000000000000000     
   0.0000000000000000     
   0.0000000000000000     
   0.0000000000000000     
   0.0000000000000000     
   0.0000000000000000     
   0.0000000000000000     
  2.35881558752442992E-009
   0.0000000000000000     
   0.0000000000000000     
   0.0000000000000000     
   0.0000000000000000     
   0.0000000000000000     
   0.0000000000000000     
   0.0000000000000000     
   0.0000000000000000     
   0.0000000000000000     
   0.0000000000000000     
   0.0000000000000000     
   0.0000000000000000     
   0.0000000000000000     
   0.0000000000000000     
   0.0000000000000000     
   0.0000000000000000     
   0.0000000000000000     
   0.0000000000000000     
   0.0000000000000000     
   0.0000000000000000     
   0.0000000000000000     
   0.0000000000000000     
   0.0000000000000000     
   0.0000000000000000     
   0.0000000000000000     
   0.0000000000000000     
   0.0000000000000000     
   0.0000000000000000     
   0.0000000000000000     
   0.0000000000000000     
   0.0000000000000000     
   0.0000000000000000     
   0.0000000000000000     
   0.0000000000000000     
   0.0000000000000000     
   0.0000000000000000     
   0.0000000000000000     
   0.0000000000000000     
   0.0000000000000000     
   0.0000000000000000     
   0.0000000000000000     
   0.0000000000000000     
   0.0000000000000000     
   0.0000000000000000     
   0.0000000000000000     
   0.0000000000000000     
   0.0000000000000000     
   0.0000000000000000     
   0.0000000000000000     
   0.0000000000000000     
   0.0000000000000000     
   0.0000000000000000     
   0.0000000000000000     
   0.0000000000000000     
   0.0000000000000000     
   0.0000000000000000     
   0.0000000000000000     
   0.0000000000000000     
CELL_DATA      456
VECTORS velocity float
  -0.0000000000000000      -5.76974365674127001E-010 -3.29326409892471969E-024
  -0.0000000000000000      -3.40179758683034708E-010  4.64361824398525461E-009
  -0.0000000000000000      -5.91208579166975926E-010 -3.29326409892471969E-024
  -0.0000000000000000       -0.0000000000000000      -4.26904605416167389E-024