# vtk DataFile Version 2.0
3D Unstructured Grid of Linear Triangles
ASCII
DATASET UNSTRUCTURED_GRID
FIELD FieldData  1
TIME 1 1 double
           0.00000
POINTS      180 float
          0.0000E+00      5.0000E+00      0.0000E+00
          0.0000E+00      2.5000E+00      0.0000E+00
          0.0000E+00      0.0000E+00      0.0000E+00
          2.5000E+00      5.0000E+00      0.0000E+00
          2.5000E+00      2.5000E+00      0.0000E+00
          2.5000E+00      0.0000E+00      0.0000E+00
          5.0000E+00      5.0000E+00      0.0000E+00
          5.0000E+00      2.5000E+00      0.0000E+00
          5.0000E+00      0.0000E+00      0.0000E+00
          0.0000E+00      5.0000E+00     -5.0000E-02
          0.0000E+00      2.5000E+00     -5.0000E-02
          0.0000E+00      0.0000E+00     -5.0000E-02
          2.5000E+00      5.0000E+00     -5.0000E-02
          2.5000E+00      2.5000E+00     -5.0000E-02
          2.5000E+00      0.0000E+00     -5.0000E-02
          5.0000E+00      5.0000E+00     -5.0000E-02
          5.0000E+00      2.5000E+00     -5.0000E-02
          5.0000E+00      0.0000E+00     -5.0000E-02
          0.0000E+00      5.0000E+00     -1.0000E-01
          0.0000E+00      2.5000E+00     -1.0000E-01
          0.0000E+00      0.0000E+00     -1.0000E-01
          2.5000E+00      5.0000E+00     -1.0000E-01
          2.5000E+00      2.5000E+00     -1.0000E-01
          2.5000E+00      0.0000E+00     -1.0000E-01
          5.0000E+00      5.0000E+00     -1.0000E-01
          5.0000E+00      2.5000E+00     -1.0000E-01
          5.0000E+00      0.0000E+00     -1.0000E-01
          0.0000E+00      5.0000E+00     -1.5000E-01
          0.0000E+00      2.5000E+00     -1.5000E-01
          0.0000E+00      0.0000E+00     -1.5000E-01
          2.5000E+00      5.0000E+00     -1.5000E-01
          2.5000E+00      2.5000E+00     -1.5000E-01
          2.5000E+00      0.0000E+00     -1.5000E-01
          5.0000E+00      5.0000E+00     -1.5000E-01
          5.0000E+00      2.5000E+00     -1.5000E-01
          5.0000E+00      0.0000E+00     -1.5000E-01
          0.0000E+00      5.0000E+00     -2.0000E-01
          0.0000E+00      2.5000E+00     -2.0000E-01
          0.0000E+00      0.0000E+00     -2.0000E-01
          2.5000E+00      5.0000E+00     -2.0000E-01
          2.5000E+00      2.5000E+00     -2.0000E-01
          2.5000E+00      0.0000E+00     -2.0000E-01
          5.0000E+00      5.0000E+00     -2.0000E-01
          5.0000E+00      2.5000E+00     -2.0000E-01
          5.0000E+00      0.0000E+00     -2.0000E-01
          0.0000E+00      5.0000E+00     -2.5000E-01
          0.0000E+00      2.5000E+00     -2.5000E-01
          0.0000E+00      0.0000E+00     -2.5000E-01
          2.5000E+00      5.0000E+00     -2.5000E-01
          2.5000E+00      2.5000E+00     -2.5000E-01
          2.5000E+00      0.0000E+00     -2.5000E-01
          5.0000E+00      5.0000E+00     -2.5000E-01
          5.0000E+00      2.5000E+00     -2.5000E-01
          5.0000E+00      0.0000E+00     -2.5000E-01
          0.0000E+00      5.0000E+00     -3.0000E-01
          0.0000E+00      2.5000E+00     -3.0000E-01
          0.0000E+00      0.0000E+00     -3.0000E-01
          2.5000E+00      5.0000E+00     -3.0000E-01
          2.5000E+00      2.5000E+00     -3.0000E-01
          2.5000E+00      0.0000E+00     -3.0000E-01
          5.0000E+00      5.0000E+00     -3.0000E-01
          5.0000E+00      2.5000E+00     -3.0000E-01
          5.0000E+00      0.0000E+00     -3.0000E-01
          0.0000E+00      5.0000E+00     -4.0000E-01
          0.0000E+00      2.5000E+00     -4.0000E-01
          0.0000E+00      0.0000E+00     -4.0000E-01
          2.5000E+00      5.0000E+00     -4.0000E-01
          2.5000E+00      2.5000E+00     -4.0000E-01
          2.5000E+00      0.0000E+00     -4.0000E-01
          5.0000E+00      5.0000E+00     -4.0000E-01
          5.0000E+00      2.5000E+00     -4.0000E-01
          5.0000E+00      0.0000E+00     -4.0000E-01
          0.0000E+00      5.0000E+00     -5.0000E-01
          0.0000E+00      2.5000E+00     -5.0000E-01
          0.0000E+00      0.0000E+00     -5.0000E-01
          2.5000E+00      5.0000E+00     -5.0000E-01
          2.5000E+00      2.5000E+00     -5.0000E-01
          2.5000E+00      0.0000E+00     -5.0000E-01
          5.0000E+00      5.0000E+00     -5.0000E-01
          5.0000E+00      2.5000E+00     -5.0000E-01
          5.0000E+00      0.0000E+00     -5.0000E-01
          0.0000E+00      5.0000E+00     -6.0000E-01
          0.0000E+00      2.5000E+00     -6.0000E-01
          0.0000E+00      0.0000E+00     -6.0000E-01
          2.5000E+00      5.0000E+00     -6.0000E-01
          2.5000E+00      2.5000E+00     -6.0000E-01
          2.5000E+00      0.0000E+00     -6.0000E-01
          5.0000E+00      5.0000E+00     -6.0000E-01
          5.0000E+00      2.5000E+00     -6.0000E-01
          5.0000E+00      0.0000E+00     -6.0000E-01
          0.0000E+00      5.0000E+00     -7.0000E-01
          0.0000E+00      2.5000E+00     -7.0000E-01
          0.0000E+00      0.0000E+00     -7.0000E-01
          2.5000E+00      5.0000E+00     -7.0000E-01
          2.5000E+00      2.5000E+00     -7.0000E-01
          2.5000E+00      0.0000E+00     -7.0000E-01
          5.0000E+00      5.0000E+00     -7.0000E-01
          5.0000E+00      2.5000E+00     -7.0000E-01
          5.0000E+00      0.0000E+00     -7.0000E-01
          0.0000E+00      5.0000E+00     -8.0000E-01
          0.0000E+00      2.5000E+00     -8.0000E-01
          0.0000E+00      0.0000E+00     -8.0000E-01
          2.5000E+00      5.0000E+00     -8.0000E-01
          2.5000E+00      2.5000E+00     -8.0000E-01
          2.5000E+00      0.0000E+00     -8.0000E-01
          5.0000E+00      5.0000E+00     -8.0000E-01
          5.0000E+00      2.5000E+00     -8.0000E-01
          5.0000E+00      0.0000E+00     -8.0000E-01
          0.0000E+00      5.0000E+00     -9.0000E-01
          0.0000E+00      2.5000E+00     -9.0000E-01
          0.0000E+00      0.0000E+00     -9.0000E-01
          2.5000E+00      5.0000E+00     -9.0000E-01
          2.5000E+00      2.5000E+00     -9.0000E-01
          2.5000E+00      0.0000E+00     -9.0000E-01
          5.0000E+00      5.0000E+00     -9.0000E-01
          5.0000E+00      2.5000E+00     -9.0000E-01
          5.0000E+00      0.0000E+00     -9.0000E-01
          0.0000E+00      5.0000E+00     -1.0000E+00
          0.0000E+00      2.5000E+00     -1.0000E+00
          0.0000E+00      0.0000E+00     -1.0000E+00
          2.5000E+00      5.0000E+00     -1.0000E+00
          2.5000E+00      2.5000E+00     -1.0000E+00
          2.5000E+00      0.0000E+00     -1.0000E+00
          5.0000E+00      5.0000E+00     -1.0000E+00
          5.0000E+00      2.5000E+00     -1.0000E+00
          5.0000E+00      0.0000E+00     -1.0000E+00
          0.0000E+00      5.0000E+00     -1.5000E+00
          0.0000E+00      2.5000E+00     -1.5000E+00
          0.0000E+00      0.0000E+00     -1.5000E+00
          2.5000E+00      5.0000E+00     -1.5000E+00
          2.5000E+00      2.5000E+00     -1.5000E+00
          2.5000E+00      0.0000E+00     -1.5000E+00
          5.0000E+00      5.0000E+00     -1.5000E+00
          5.0000E+00      2.5000E+00     -1.5000E+00
          5.0000E+00      0.0000E+00     -1.5000E+00
          0.0000E+00      5.0000E+00     -2.0000E+00
          0.0000E+00      2.5000E+00     -2.0000E+00
          0.0000E+00      0.0000E+00     -2.0000E+00
          2.5000E+00      5.0000E+00     -2.0000E+00
          2.5000E+00      2.5000E+00     -2.0000E+00
          2.5000E+00      0.0000E+00     -2.0000E+00
          5.0000E+00      5.0000E+00     -2.0000E+00
          5.0000E+00      2.5000E+00     -2.0000E+00
          5.0000E+00      0.0000E+00     -2.0000E+00
          0.0000E+00      5.0000E+00     -2.5000E+00
          0.0000E+00      2.5000E+00     -2.5000E+00
          0.0000E+00      0.0000E+00     -2.5000E+00
          2.5000E+00      5.0000E+00     -2.5000E+00
          2.5000E+00      2.5000E+00     -2.5000E+00
          2.5000E+00      0.0000E+00     -2.5000E+00
          5.0000E+00      5.0000E+00     -2.5000E+00
          5.0000E+00      2.5000E+00     -2.5000E+00
          5.0000E+00      0.0000E+00     -2.5000E+00
          0.0000E+00      5.0000E+00     -3.0000E+00
          0.0000E+00      2.5000E+00     -3.0000E+00
          0.0000E+00      0.0000E+00     -3.0000E+00
          2.5000E+00      5.0000E+00     -3.0000E+00
          2.5000E+00      2.5000E+00     -3.0000E+00
          2.5000E+00      0.0000E+00     -3.0000E+00
          5.0000E+00      5.0000E+00     -3.0000E+00
          5.0000E+00      2.5000E+00     -3.0000E+00
          5.0000E+00      0.0000E+00     -3.0000E+00
          0.0000E+00      5.0000E+00     -4.0000E+00
          0.0000E+00      2.5000E+00     -4.0000E+00
          0.0000E+00      0.0000E+00     -4.0000E+00
          2.5000E+00      5.0000E+00     -4.0000E+00
          2.5000E+00      2.5000E+00     -4.0000E+00
          2.5000E+00      0.0000E+00     -4.0000E+00
          5.0000E+00      5.0000E+00     -4.0000E+00
          5.0000E+00      2.5000E+00     -4.0000E+00
          5.0000E+00      0.0000E+00     -4.0000E+00
          0.0000E+00      5.0000E+00     -5.0000E+00
          0.0000E+00      2.5000E+00     -5.0000E+00
          0.0000E+00      0.0000E+00     -5.0000E+00
          2.5000E+00      5.0000E+00     -5.0000E+00
          2.5000E+00      2.5000E+00     -5.0000E+00
          2.5000E+00      0.0000E+00     -5.0000E+00
          5.0000E+00      5.0000E+00     -5.0000E+00
          5.0000E+00      2.5000E+00     -5.0000E+00
          5.0000E+00      0.0000E+00     -5.0000E+00
CELLS      456     2280
4          0          3          4          9
4          4          9         12         13
4          3          4          9         12
4          3          6          7         12
4          7         12         15         16
[...]
POINT_DATA      180
SCALARS PRESSURE float
LOOKUP_TABLE default
  -2.0000000000000000     
  -2.0000000000000000     
  -2.0000000000000000     
  -2.0000000000000000     
  -5.4716001262007428     
  -2.0000000000000000     
  -2.0000000000000000     
  -2.0000000000000000     
  -2.0000000000000000     
  -1.9500000000000002     
  -1.9500000000000002     
  -1.9500000000000002     
  -1.9500000000000002     
  -4.7864296683360488     
  -1.9500000000000002     
  -1.9500000000000002     
  -1.9500000000000002     
  -1.9500000000000002     
  -1.8999999999999999     
  -1.8999999999999999     
  -1.8999999999999999     
  -1.8999999999999999     
  -3.7769883160968512     
  -1.8999999999999999     
  -1.8999999999999999     
  -1.8999999999999999     
  -1.8999999999999999     
  -1.8500000000000005     
  -1.8500000000000005     
  -1.8500000000000005     
  -1.8500000000000005     
  -3.0397861463565894     
  -1.8500000000000005     
  -1.8500000000000005     
  -1.8500000000000005     
  -1.8500000000000005     
  -1.8000000000000005     
  -1.8000000000000005     
  -1.8000000000000005     
  -1.8000000000000005     
  -2.5155347459505450     
  -1.8000000000000005     
  -1.8000000000000005     
  -1.8000000000000005     
  -1.8000000000000005     
  -1.7500000000000004     
  -1.7500000000000004     
  -1.7500000000000004     
  -1.7500000000000004     
  -2.1858046409517708     
  -1.7500000000000004     
  -1.7500000000000004     
  -1.7500000000000004     
  -1.7500000000000004     
  -1.7000000000000004     
  -1.7000000000000004     
  -1.7000000000000004     
  -1.7000000000000004     
  -1.9559645646976025     
  -1.7000000000000004     
  -1.7000000000000004     
  -1.7000000000000004     
  -1.7000000000000004     
  -1.6000000000000003     
  -1.6000000000000003     
  -1.6000000000000003     
  -1.6000000000000003     
  -1.6961425281436628     
  -1.6000000000000003     
  -1.6000000000000003     
  -1.6000000000000003     
  -1.6000000000000003     
  -1.5000000000000002     
  -1.5000000000000002     
  -1.5000000000000002     
  -1.5000000000000002     
  -1.5361713474686267     
  -1.5000000000000002     
  -1.5000000000000002     
  -1.5000000000000002     
  -1.5000000000000002     
  -1.3999999999999999     
  -1.3999999999999999     
  -1.3999999999999999     
  -1.3999999999999999     
  -1.4136945817149698     
  -1.3999999999999999     
  -1.3999999999999999     
  -1.3999999999999999     
  -1.3999999999999999     
  -1.2999999999999998     
  -1.2999999999999998     
  -1.2999999999999998     
  -1.2999999999999998     
  -1.3055657745684077     
  -1.2999999999999998     
  -1.2999999999999998     
  -1.2999999999999998     
  -1.2999999999999998     
  -1.2000000000000002     
  -1.2000000000000002     
  -1.2000000000000002     
  -1.2000000000000002     
  -1.2032698717919668     
  -1.2000000000000002     
  -1.2000000000000002     
  -1.2000000000000002     
  -1.2000000000000002     
  -1.1000000000000001     
  -1.1000000000000001     
  -1.1000000000000001     
  -1.1000000000000001     
  -1.1023092705445670     
  -1.1000000000000001     
  -1.1000000000000001     
  -1.1000000000000001     
  -1.1000000000000001     
  -1.0000000000000000     
  -1.0000000000000000     
  -1.0000000000000000     
  -1.0000000000000000     
  -1.0014314407433238     
  -1.0000000000000000     
  -1.0000000000000000     
  -1.0000000000000000     
  -1.0000000000000000     
 -0.50000000000000000     
 -0.50000000000000000     
 -0.50000000000000000     
 -0.50000000000000000     
 -0.50000173441961016     
 -0.50000000000000000     
 -0.50000000000000000     
 -0.50000000000000000     
 -0.50000000000000000     
   0.0000000000000000     
   0.0000000000000000     
   0.0000000000000000     
   0.0000000000000000     
 -9.01943011327197663E-007
   0.0000000000000000     
   0.0000000000000000     
   0.0000000000000000     
   0.0000000000000000     
  0.50000000000000000     
  0.50000000000000000     
  0.50000000000000000     
  0.50000000000000000     
  0.49999939220082856     
  0.50000000000000000     
  0.50000000000000000     
  0.50000000000000000     
  0.50000000000000000     
   1.0000000000000000     
   1.0000000000000000     
   1.0000000000000000     
   1.0000000000000000     
  0.99999958776421538     
   1.0000000000000000     
   1.0000000000000000     
   1.0000000000000000     
   1.0000000000000000     
   2.0000000000000000     
   2.0000000000000000     
   2.0000000000000000     
   2.0000000000000000     
   1.9999997810112422     
   2.0000000000000000     
   2.0000000000000000     
   2.0000000000000000     
   2.0000000000000000     
   3.0000000000000004     
   3.0000000000000004     
   3.0000000000000004     
   3.0000000000000004     
   2.9999998341007763     
   3.0000000000000004     
   3.0000000000000004     
   3.0000000000000004     
   3.0000000000000004     
SCALARS SATURATION float
LOOKUP_TABLE default
  0.34705948956611438     
  0.34705948956611438     
  0.34705948956611438     
  0.34705948956611438     
  0.25474311471754396     
  0.34705948956611432     
  0.34705948956611438     
  0.34705948956611432     
  0.34705948956611438     
  0.34987011055248296     
  0.34987011055248302     
  0.34987011055248302     
  0.34987011055248302     
  0.26503924160864939     
  0.34987011055248302     
  0.34987011055248302     
  0.34987011055248302     
  0.34987011055248296     
  0.35278140791709894     
  0.35278140791709900     
  0.35278140791709894     
  0.35278140791709900     
  0.28464446897374562     
  0.35278140791709900     
  0.35278140791709894     
  0.35278140791709900     
  0.35278140791709894     
  0.35579970281143997     
  0.35579970281144002     
  0.35579970281144002     
  0.35579970281144002     
  0.30427530644008183     
  0.35579970281144002     
  0.35579970281144002     
  0.35579970281144002     
  0.35579970281143997     
  0.35893189187377200     
  0.35893189187377206     
  0.35893189187377200     
  0.35893189187377206     
  0.32278120374864661     
  0.35893189187377206     
  0.35893189187377200     
  0.35893189187377206     
  0.35893189187377200     
  0.36218551668681953     
  0.36218551668681959     
  0.36218551668681959     
  0.36218551668681959     
  0.33740527952259602     
  0.36218551668681959     
  0.36218551668681959     
  0.36218551668681959     
  0.36218551668681953     
  0.36556884378302607     
  0.36556884378302612     
  0.36556884378302612     
  0.36556884378302612     
  0.34952965768432109     
  0.36556884378302612     
  0.36556884378302612     
  0.36556884378302612     
  0.36556884378302607     
  0.37276186557557112     
  0.37276186557557117     
  0.37276186557557117     
  0.37276186557557117     
  0.36583551028405414     
  0.37276186557557117     
  0.37276186557557117     
  0.37276186557557117     
  0.37276186557557112     
  0.38059549922495689     
  0.38059549922495700     
  0.38059549922495695     
  0.38059549922495700     
  0.37768194307326719     
  0.38059549922495700     
  0.38059549922495695     
  0.38059549922495700     
  0.38059549922495689     
  0.38917363816444595     
  0.38917363816444606     
  0.38917363816444600     
  0.38917363816444606     
  0.38795046393532429     
  0.38917363816444606     
  0.38917363816444600     
  0.38917363816444606     
  0.38917363816444595     
  0.39862564488556396     
  0.39862564488556401     
  0.39862564488556396     
  0.39862564488556401     
  0.39807399979139779     
  0.39862564488556401     
  0.39862564488556396     
  0.39862564488556401     
  0.39862564488556396     
  0.40911501315512067     
  0.40911501315512078     
  0.40911501315512072     
  0.40911501315512078     
  0.40875358936532480     
  0.40911501315512078     
  0.40911501315512072     
  0.40911501315512078     
  0.40911501315512067     
  0.42085192652601960     
  0.42085192652601966     
  0.42085192652601960     
  0.42085192652601966     
  0.42056492097681442     
  0.42085192652601966     
  0.42085192652601960     
  0.42085192652601966     
  0.42085192652601960     
  0.43411196437317834     
  0.43411196437317839     
  0.43411196437317839     
  0.43411196437317839     
  0.43390982157454472     
  0.43411196437317839     
  0.43411196437317839     
  0.43411196437317839     
  0.43411196437317834     
  0.54315545943926802     
  0.54315545943926802     
  0.54315545943926802     
  0.54315545943926802     
  0.54315486115217926     
  0.54315545943926802     
  0.54315545943926802     
  0.54315545943926802     
  0.54315545943926802     
  0.99999999999999989     
   1.0000000000000000     
   1.0000000000000000     
   1.0000000000000000     
  0.99999997692086939     
   1.0000000000000000     
   1.0000000000000000     
   1.0000000000000000     
  0.99999999999999989     
  0.99999999999999989     
   1.0000000000000000     
   1.0000000000000000     
   1.0000000000000000     
   1.0000000000000000     
   1.0000000000000000     
   1.0000000000000000     
   1.0000000000000000     
  0.99999999999999989     
  0.99999999999999989     
   1.0000000000000000     
   1.0000000000000000     
   1.0000000000000000     
   1.0000000000000000     
   1.0000000000000000     
   1.0000000000000000     
   1.0000000000000000     
  0.99999999999999989     
  0.99999999999999989     
   1.0000000000000000     
   1.0000000000000000     
   1.0000000000000000     
   1.0000000000000000     
   1.0000000000000000     
   1.0000000000000000     
   1.0000000000000000     
  0.99999999999999989     
   1.0000000000000000     
  0.99999999999999989     
   1.0000000000000000     
  0.99999999999999989     
   1.0000000000000000     
   1.0000000000000000     
   1.0000000000000000     
   1.0000000000000000     
   1.0000000000000000     
SCALARS RDF float
LOOKUP_TABLE default
   0.0000000000000000     
   0.0000000000000000     
   0.0000000000000000     
   0.0000000000000000     
   60000.000000000000     
   0.0000000000000000     
   0.0000000000000000     
   0.0000000000000000     
   0.0000000000000000     
   0.0000000000000000     
   0.0000000000000000     
   0.0000000000000000     
   0.0000000000000000     
   41800.000000000000     
   0.0000000000000000     
   0.0000000000000000     
   0.0000000000000000     
   0.0000000000000000     
   0.0000000000000000     
   0.0000000000000000     
   0.0000000000000000     
   0.0000000000000000     
   23600.000000000000     
   0.0000000000000000     
   0.0000000000000000     
   0.0000000000000000     
   0.0000000000000000     
   0.0000000000000000     
   0.0000000000000000     
   0.0000000000000000     
   0.0000000000000000     
   16430.000000000000     
   0.0000000000000000     
   0.0000000000000000     
   0.0000000000000000     
   0.0000000000000000     
   0.0000000000000000     
   0.0000000000000000     
   0.0000000000000000     
   0.0000000000000000     
   9260.0000000000000     
   0.0000000000000000     
   0.0000000000000000     
   0.0000000000000000     
   0.0000000000000000     
   0.0000000000000000     
   0.0000000000000000     
   0.0000000000000000     
   0.0000000000000000     
   6450.0000000000000     
   0.0000000000000000     
   0.0000000000000000     
   0.0000000000000000     
   0.0000000000000000     
   0.0000000000000000     
   0.0000000000000000     
   0.0000000000000000     
   0.0000000000000000     
   3639.9999999999986     
   0.0000000000000000     
   0.0000000000000000     
   0.0000000000000000     
   0.0000000000000000     
   0.0000000000000000     
   0.0000000000000000     
   0.0000000000000000     
   0.0000000000000000     
   1430.0000000000000     
   0.0000000000000000     
   0.0000000000000000     
   0.0000000000000000     
   0.0000000000000000     
   0.0000000000000000     
   0.0000000000000000     
   0.0000000000000000     
   0.0000000000000000     
   562.00000000000000     
   0.0000000000000000     
   0.0000000000000000     
   0.0000000000000000     
   0.0000000000000000     
   0.0000000000000000     
   0.0000000000000000     
   0.0000000000000000     
   0.0000000000000000     
   220.99999999999986     
   0.0000000000000000     
   0.0000000000000000     
   0.0000000000000000     
   0.0000000000000000     
   0.0000000000000000     
   0.0000000000000000     
   0.0000000000000000     
   0.0000000000000000     
   86.799999999999997     
   0.0000000000000000     
   0.0000000000000000     
   0.0000000000000000     
   0.0000000000000000     
   0.0000000000000000     
   0.0000000000000000     
   0.0000000000000000     
   0.0000000000000000     
   86.799999999999997     
   0.0000000000000000     
   0.0000000000000000     
   0.0000000000000000     
   0.0000000000000000     
   0.0000000000000000     
   0.0000000000000000     
   0.0000000000000000     
   0.0000000000000000     
   86.799999999999997     
   0.0000000000000000     
   0.0000000000000000     
   0.0000000000000000     
   0.0000000000000000     
   0.0000000000000000     
   0.0000000000000000     
   0.0000000000000000     
   0.0000000000000000     
   86.799999999999997     
   0.0000000000000000     
   0.0000000000000000     
   0.0000000000000000     
   0.0000000000000000     
   0.0000000000000000     
   0.0000000000000000     
   0.0000000000000000     
   0.0000000000000000     
   0.0000000000000000     
   0.0000000000000000     
   0.0000000000000000     
   0.0000000000000000     
   0.0000000000000000     
   0.0000000000000000     
   0.0000000000000000     
   0.0000000000000000     
   0.0000000000000000     
   0.0000000000000000     
   0.0000000000000000     
   0.0000000000000000     
   0.0000000000000000     
   0.0000000000000000     
   0.0000000000000000     
   0.0000000000000000     
   0.0000000000000000     
   0.0000000000000000     
   0.0000000000000000     
   0.0000000000000000     
   0.0000000000000000     
   0.0000000000000000     
   0.0000000000000000     
   0.0000000000000000     
   0.0000000000000000     
   0.0000000000000000     
   0.0000000000000000     
   0.0000000000000000     
   0.0000000000000000     
   0.0000000000000000     
   0.0000000000000000     
   0.0000000000000000     
   0.0000000000000000     
   0.0000000000000000     
   0.0000000000000000     
   0.0000000000000000     
   0.0000000000000000     
   0.0000000000000000     
   0.0000000000000000     
   0.0000000000000000     
   0.0000000000000000     
   0.0000000000000000     
   0.0000000000000000     
   0.0000000000000000     
   0.0000000000000000     
   0.0000000000000000     
   0.0000000000000000     
   0.0000000000000000     
   0.0000000000000000     
   0.0000000000000000     
SCALARS TraspFlux float
LOOKUP_TABLE default
   0.0000000000000000     
   0.0000000000000000     
   0.0000000000000000     
   0.0000000000000000     
 -2.29446891389144818E-009
   0.0000000000000000     
   0.0000000000000000     
   0.0000000000000000     
   0.0000000000000000     
   0.0000000000000000     
   0.0000000000000000     
   0.0000000000000000     
   0.0000000000000000     
 -1.63298622665644841E-009
   0.0000000000000000     
   0.0000000000000000     
   0.0000000000000000     
   0.0000000000000000     
   0.0000000000000000     
   0.0000000000000000     
   0.0000000000000000     
   0.0000000000000000     
  4.11037076321188288E-010
   0.0000000000000000     
   0.0000000000000000     
   0.0000000000000000     
   0.0000000000000000     
   0.0000000000000000     
   0.0000000000000000     
   0.0000000000000000     
   0.0000000000000000     
  9.50547758998419667E-010
   0.0000000000000000     
   0.0000000000000000     
   0.0000000000000000     
   0.0000000000000000     
   0.0000000000000000     
   0.0000000000000000     
   0.0000000000000000     
   0.0000000000000000     
  7.94272157142572810E-010
   0.0000000000000000     
   0.0000000000000000     
   0.0000000000000000     
   0.0000000000000000     
   0.0000000000000000     
   0.0000000000000000     
   0.0000000000000000     
   0.0000000000000000     
  6.59428750745774957E-010
   0.0000000000000000     
   0.0000000000000000     
   0.0000000000000000     
   0.0000000000000000     
   0.0000000000000000     
   0.0000000000000000     
   0.0000000000000000     
   0.0000000000000000     
  6.16004032579007811E-010
   0.0000000000000000     
   0.0000000000000000     
   0.0000000000000000     
   0.0000000000000000     
   0.0000000000000000     
   0.0000000000000000     
   0.0000000000000000     
   0.0000000000000000     
  3.49549738930754936E-010
   0.0000000000000000     
   0.0000000000000000     
   0.0000000000000000     
   0.0000000000000000     
   0.0000000000000000     
   0.0000000000000000     
   0.0000000000000000     
   0.0000000000000000     
  1.41329769321007710E-010
   0.0000000000000000     
   0.0000000000000000     
   0.0000000000000000     
   0.0000000000000000     
   0.0000000000000000     
   0.0000000000000000     
   0.0000000000000000     
   0.0000000000000000     
  5.61541687181870591E-011
   0.0000000000000000     
   0.0000000000000000     
   0.0000000000000000     
   0.0000000000000000     
   0.0000000000000000     
   0.0000000000000000     
   0.0000000000000000     
   0.0000000000000000     
  2.21347994889197803E-011
   0.0000000000000000     
   0.0000000000000000     
   0.0000000000000000     
   0.0000000000000000     
   0.0000000000000000     
   0.0000000000000000     
   0.0000000000000000     
   0.0000000000000000     
  2.21615794707078655E-011
   0.0000000000000000     
   0.0000000000000000     
   0.0000000000000000     
   0.0000000000000000     
   0.0000000000000000     
   0.0000000000000000     
   0.0000000000000000     
   0.0000000000000000     
  2.21742019723101792E-011
   0.0000000000000000     
   0.0000000000000000     
   0.0000000000000000     
   0.0000000000000000     
   0.0000000000000000     
   0.0000000000000000     
   0.0000000000000000     
   0.0000000000000000     
  6.65565983069917619E-011
   0.0000000000000000     
   0.0000000000000000     
   0.0000000000000000     
   0.0000000000000000     
   0.0000000000000000     
   0.0000000000000000     
   0.0000000000000000     
   0.0000000000000000     
   0.0000000000000000     
   0.0000000000000000     
   0.0000000000000000     
   0.0000000000000000     
   0.0000000000000000     
   0.0000000000000000     
   0.0000000000000000     
   0.0000000000000000     
   0.0000000000000000     
   0.0000000000000000     
   0.0000000000000000     
   0.0000000000000000     
   0.0000000000000000     
   0.0000000000000000     
   0.0000000000000000     
   0.0000000000000000     
   0.0000000000000000     
   0.0000000000000000     
   0.0000000000000000     
   0.0000000000000000     
   0.0000000000000000     
   0.0000000000000000     
   0.0000000000000000     
   0.0000000000000000     
   0.0000000000000000     
   0.0000000000000000     
   0.0000000000000000     
   0.0000000000000000     
   0.0000000000000000     
   0.0000000000000000     
   0.0000000000000000     
   0.0000000000000000     
   0.0000000000000000     
   0.0000000000000000     
   0.0000000000000000     
   0.0000000000000000     
   0.0000000000000000     
   0.0000000000000000     
   0.0000000000000000     
   0.0000000000000000     
   0.0000000000000000     
   0.0000000000000000     
   0.0000000000000000     
   0.0000000000000000     
   0.0000000000000000     
   0.0000000000000000     
   0.0000000000000000     
   0.0000000000000000     
   0.0000000000000000     
   0.0000000000000000     
CELL_DATA      456
VECTORS velocity float
  -0.0000000000000000      -7.80848306872441753E-010 -3.17129135452010041E-024
  -0.0000000000000000      -4.65040312654393339E-010  5.20689569023426408E-009
  -0.0000000000000000      -8.00342586295282210E-010 -3.29326409892471969E-024
  -0.0000000000000000       -0.0000000000000000      -4.26904605416167389E-024