# vtk DataFile Version 2.0
3D Unstructured Grid of Linear Triangles
ASCII
DATASET UNSTRUCTURED_GRID
FIELD FieldData  1
TIME 1 1 double
           0.00000
POINTS      180 float
          0.0000E+00      5.0000E+00      0.0000E+00
          0.0000E+00      2.5000E+00      0.0000E+00
          0.0000E+00      0.0000E+00      0.0000E+00
          2.5000E+00      5.0000E+00      0.0000E+00
          2.5000E+00      2.5000E+00      0.0000E+00
          2.5000E+00      0.0000E+00      0.0000E+00
          5.0000E+00      5.0000E+00      0.0000E+00
          5.0000E+00      2.5000E+00      0.0000E+00
          5.0000E+00      0.0000E+00      0.0000E+00
          0.0000E+00      5.0000E+00     -5.0000E-02
          0.0000E+00      2.5000E+00     -5.0000E-02
          0.0000E+00      0.0000E+00     -5.0000E-02
          2.5000E+00      5.0000E+00     -5.0000E-02
          2.5000E+00      2.5000E+00     -5.0000E-02
          2.5000E+00      0.0000E+00     -5.0000E-02
          5.0000E+00      5.0000E+00     -5.0000E-02
          5.0000E+00      2.5000E+00     -5.0000E-02
          5.0000E+00      0.0000E+00     -5.0000E-02
          0.0000E+00      5.0000E+00     -1.0000E-01
          0.0000E+00      2.5000E+00     -1.0000E-01
          0.0000E+00      0.0000E+00     -1.0000E-01
          2.5000E+00      5.0000E+00     -1.0000E-01
          2.5000E+00      2.5000E+00     -1.0000E-01
          2.5000E+00      0.0000E+00     -1.0000E-01
          5.0000E+00      5.0000E+00     -1.0000E-01
          5.0000E+00      2.5000E+00     -1.0000E-01
          5.0000E+00      0.0000E+00     -1.0000E-01
          0.0000E+00      5.0000E+00     -1.5000E-01
          0.0000E+00      2.5000E+00     -1.5000E-01
          0.0000E+00      0.0000E+00     -1.5000E-01
          2.5000E+00      5.0000E+00     -1.5000E-01
          2.5000E+00      2.5000E+00     -1.5000E-01
          2.5000E+00      0.0000E+00     -1.5000E-01
          5.0000E+00      5.0000E+00     -1.5000E-01
          5.0000E+00      2.5000E+00     -1.5000E-01
          5.0000E+00      0.0000E+00     -1.5000E-01
          0.0000E+00      5.0000E+00     -2.0000E-01
          0.0000E+00      2.5000E+00     -2.0000E-01
          0.0000E+00      0.0000E+00     -2.0000E-01
          2.5000E+00      5.0000E+00     -2.0000E-01
          2.5000E+00      2.5000E+00     -2.0000E-01
          2.5000E+00      0.0000E+00     -2.0000E-01
          5.0000E+00      5.0000E+00     -2.0000E-01
          5.0000E+00      2.5000E+00     -2.0000E-01
          5.0000E+00      0.0000E+00     -2.0000E-01
          0.0000E+00      5.0000E+00     -2.5000E-01
          0.0000E+00      2.5000E+00     -2.5000E-01
          0.0000E+00      0.0000E+00     -2.5000E-01
          2.5000E+00      5.0000E+00     -2.5000E-01
          2.5000E+00      2.5000E+00     -2.5000E-01
          2.5000E+00      0.0000E+00     -2.5000E-01
          5.0000E+00      5.0000E+00     -2.5000E-01
          5.0000E+00      2.5000E+00     -2.5000E-01
          5.0000E+00      0.0000E+00     -2.5000E-01
          0.0000E+00      5.0000E+00     -3.0000E-01
          0.0000E+00      2.5000E+00     -3.0000E-01
          0.0000E+00      0.0000E+00     -3.0000E-01
          2.5000E+00      5.0000E+00     -3.0000E-01
          2.5000E+00      2.5000E+00     -3.0000E-01
          2.5000E+00      0.0000E+00     -3.0000E-01
          5.0000E+00      5.0000E+00     -3.0000E-01
          5.0000E+00      2.5000E+00     -3.0000E-01
          5.0000E+00      0.0000E+00     -3.0000E-01
          0.0000E+00      5.0000E+00     -4.0000E-01
          0.0000E+00      2.5000E+00     -4.0000E-01
          0.0000E+00      0.0000E+00     -4.0000E-01
          2.5000E+00      5.0000E+00     -4.0000E-01
          2.5000E+00      2.5000E+00     -4.0000E-01
          2.5000E+00      0.0000E+00     -4.0000E-01
          5.0000E+00      5.0000E+00     -4.0000E-01
          5.0000E+00      2.5000E+00     -4.0000E-01
          5.0000E+00      0.0000E+00     -4.0000E-01
          0.0000E+00      5.0000E+00     -5.0000E-01
          0.0000E+00      2.5000E+00     -5.0000E-01
          0.0000E+00      0.0000E+00     -5.0000E-01
          2.5000E+00      5.0000E+00     -5.0000E-01
          2.5000E+00      2.5000E+00     -5.0000E-01
          2.5000E+00      0.0000E+00     -5.0000E-01
          5.0000E+00      5.0000E+00     -5.0000E-01
          5.0000E+00      2.5000E+00     -5.0000E-01
          5.0000E+00      0.0000E+00     -5.0000E-01
          0.0000E+00      5.0000E+00     -6.0000E-01
          0.0000E+00      2.5000E+00     -6.0000E-01
          0.0000E+00      0.0000E+00     -6.0000E-01
          2.5000E+00      5.0000E+00     -6.0000E-01
          2.5000E+00      2.5000E+00     -6.0000E-01
          2.5000E+00      0.0000E+00     -6.0000E-01
          5.0000E+00      5.0000E+00     -6.0000E-01
          5.0000E+00      2.5000E+00     -6.0000E-01
          5.0000E+00      0.0000E+00     -6.0000E-01
          0.0000E+00      5.0000E+00     -7.0000E-01
          0.0000E+00      2.5000E+00     -7.0000E-01
          0.0000E+00      0.0000E+00     -7.0000E-01
          2.5000E+00      5.0000E+00     -7.0000E-01
          2.5000E+00      2.5000E+00     -7.0000E-01
          2.5000E+00      0.0000E+00     -7.0000E-01
          5.0000E+00      5.0000E+00     -7.0000E-01
          5.0000E+00      2.5000E+00     -7.0000E-01
          5.0000E+00      0.0000E+00     -7.0000E-01
          0.0000E+00      5.0000E+00     -8.0000E-01
          0.0000E+00      2.5000E+00     -8.0000E-01
          0.0000E+00      0.0000E+00     -8.0000E-01
          2.5000E+00      5.0000E+00     -8.0000E-01
          2.5000E+00      2.5000E+00     -8.0000E-01
          2.5000E+00      0.0000E+00     -8.0000E-01
          5.0000E+00      5.0000E+00     -8.0000E-01
          5.0000E+00      2.5000E+00     -8.0000E-01
          5.0000E+00      0.0000E+00     -8.0000E-01
          0.0000E+00      5.0000E+00     -9.0000E-01
          0.0000E+00      2.5000E+00     -9.0000E-01
          0.0000E+00      0.0000E+00     -9.0000E-01
          2.5000E+00      5.0000E+00     -9.0000E-01
          2.5000E+00      2.5000E+00     -9.0000E-01
          2.5000E+00      0.0000E+00     -9.0000E-01
          5.0000E+00      5.0000E+00     -9.0000E-01
          5.0000E+00      2.5000E+00     -9.0000E-01
          5.0000E+00      0.0000E+00     -9.0000E-01
          0.0000E+00      5.0000E+00     -1.0000E+00
          0.0000E+00      2.5000E+00     -1.0000E+00
          0.0000E+00      0.0000E+00     -1.0000E+00
          2.5000E+00      5.0000E+00     -1.0000E+00
          2.5000E+00      2.5000E+00     -1.0000E+00
          2.5000E+00      0.0000E+00     -1.0000E+00
          5.0000E+00      5.0000E+00     -1.0000E+00
          5.0000E+00      2.5000E+00     -1.0000E+00
          5.0000E+00      0.0000E+00     -1.0000E+00
          0.0000E+00      5.0000E+00     -1.5000E+00
          0.0000E+00      2.5000E+00     -1.5000E+00
          0.0000E+00      0.0000E+00     -1.5000E+00
          2.5000E+00      5.0000E+00     -1.5000E+00
          2.5000E+00      2.5000E+00     -1.5000E+00
          2.5000E+00      0.0000E+00     -1.5000E+00
          5.0000E+00      5.0000E+00     -1.5000E+00
          5.0000E+00      2.5000E+00     -1.5000E+00
          5.0000E+00      0.0000E+00     -1.5000E+00
          0.0000E+00      5.0000E+00     -2.0000E+00
          0.0000E+00      2.5000E+00     -2.0000E+00
          0.0000E+00      0.0000E+00     -2.0000E+00
          2.5000E+00      5.0000E+00     -2.0000E+00
          2.5000E+00      2.5000E+00     -2.0000E+00
          2.5000E+00      0.0000E+00     -2.0000E+00
          5.0000E+00      5.0000E+00     -2.0000E+00
          5.0000E+00      2.5000E+00     -2.0000E+00
          5.0000E+00      0.0000E+00     -2.0000E+00
          0.0000E+00      5.0000E+00     -2.5000E+00
          0.0000E+00      2.5000E+00     -2.5000E+00
          0.0000E+00      0.0000E+00     -2.5000E+00
          2.5000E+00      5.0000E+00     -2.5000E+00
          2.5000E+00      2.5000E+00     -2.5000E+00
          2.5000E+00      0.0000E+00     -2.5000E+00
          5.0000E+00      5.0000E+00     -2.5000E+00
          5.0000E+00      2.5000E+00     -2.5000E+00
          5.0000E+00      0.0000E+00     -2.5000E+00
          0.0000E+00      5.0000E+00     -3.0000E+00
          0.0000E+00      2.5000E+00     -3.0000E+00
          0.0000E+00      0.0000E+00     -3.0000E+00
          2.5000E+00      5.0000E+00     -3.0000E+00
          2.5000E+00      2.5000E+00     -3.0000E+00
          2.5000E+00      0.0000E+00     -3.0000E+00
          5.0000E+00      5.0000E+00     -3.0000E+00
          5.0000E+00      2.5000E+00     -3.0000E+00
          5.0000E+00      0.0000E+00     -3.0000E+00
          0.0000E+00      5.0000E+00     -4.0000E+00
          0.0000E+00      2.5000E+00     -4.0000E+00
          0.0000E+00      0.0000E+00     -4.0000E+00
          2.5000E+00      5.0000E+00     -4.0000E+00
          2.5000E+00      2.5000E+00     -4.0000E+00
          2.5000E+00      0.0000E+00     -4.0000E+00
          5.0000E+00      5.0000E+00     -4.0000E+00
          5.0000E+00      2.5000E+00     -4.0000E+00
          5.0000E+00      0.0000E+00     -4.0000E+00
          0.0000E+00      5.0000E+00     -5.0000E+00
          0.0000E+00      2.5000E+00     -5.0000E+00
          0.0000E+00      0.0000E+00     -5.0000E+00
          2.5000E+00      5.0000E+00     -5.0000E+00
          2.5000E+00      2.5000E+00     -5.0000E+00
          2.5000E+00      0.0000E+00     -5.0000E+00
          5.0000E+00      5.0000E+00     -5.0000E+00
          5.0000E+00      2.5000E+00     -5.0000E+00
          5.0000E+00      0.0000E+00     -5.0000E+00
CELLS      456     2280
4          0          3          4          9
4          4          9         12         13
4          3          4          9         12
4          3          6          7         12
4          7         12         15         16
[...]
POINT_DATA      180
SCALARS PRESSURE float
LOOKUP_TABLE default
  -2.0000000000000000     
  -2.0000000000000000     
  -2.0000000000000000     
  -2.0000000000000000     
  -6.2528351701629097     
  -2.0000000000000000     
  -2.0000000000000000     
  -2.0000000000000000     
  -2.0000000000000000     
  -1.9500000000000002     
  -1.9500000000000002     
  -1.9500000000000002     
  -1.9500000000000002     
  -5.5305333057861361     
  -1.9500000000000002     
  -1.9500000000000002     
  -1.9500000000000002     
  -1.9500000000000002     
  -1.8999999999999999     
  -1.8999999999999999     
  -1.8999999999999999     
  -1.8999999999999999     
  -4.3719124426261544     
  -1.8999999999999999     
  -1.8999999999999999     
  -1.8999999999999999     
  -1.8999999999999999     
  -1.8500000000000005     
  -1.8500000000000005     
  -1.8500000000000005     
  -1.8500000000000005     
  -3.4476442828926608     
  -1.8500000000000005     
  -1.8500000000000005     
  -1.8500000000000005     
  -1.8500000000000005     
  -1.8000000000000005     
  -1.8000000000000005     
  -1.8000000000000005     
  -1.8000000000000005     
  -2.7767121978084663     
  -1.8000000000000005     
  -1.8000000000000005     
  -1.8000000000000005     
  -1.8000000000000005     
  -1.7500000000000004     
  -1.7500000000000004     
  -1.7500000000000004     
  -1.7500000000000004     
  -2.3461805805920140     
  -1.7500000000000004     
  -1.7500000000000004     
  -1.7500000000000004     
  -1.7500000000000004     
  -1.7000000000000004     
  -1.7000000000000004     
  -1.7000000000000004     
  -1.7000000000000004     
  -2.0540929167968880     
  -1.7000000000000004     
  -1.7000000000000004     
  -1.7000000000000004     
  -1.7000000000000004     
  -1.6000000000000003     
  -1.6000000000000003     
  -1.6000000000000003     
  -1.6000000000000003     
  -1.7352575194509652     
  -1.6000000000000003     
  -1.6000000000000003     
  -1.6000000000000003     
  -1.6000000000000003     
  -1.5000000000000002     
  -1.5000000000000002     
  -1.5000000000000002     
  -1.5000000000000002     
  -1.5518900809923968     
  -1.5000000000000002     
  -1.5000000000000002     
  -1.5000000000000002     
  -1.5000000000000002     
  -1.3999999999999999     
  -1.3999999999999999     
  -1.3999999999999999     
  -1.3999999999999999     
  -1.4200600047825367     
  -1.3999999999999999     
  -1.3999999999999999     
  -1.3999999999999999     
  -1.3999999999999999     
  -1.2999999999999998     
  -1.2999999999999998     
  -1.2999999999999998     
  -1.2999999999999998     
  -1.3082773581152085     
  -1.2999999999999998     
  -1.2999999999999998     
  -1.2999999999999998     
  -1.2999999999999998     
  -1.2000000000000002     
  -1.2000000000000002     
  -1.2000000000000002     
  -1.2000000000000002     
  -1.2045519836536711     
  -1.2000000000000002     
  -1.2000000000000002     
  -1.2000000000000002     
  -1.2000000000000002     
  -1.1000000000000001     
  -1.1000000000000001     
  -1.1000000000000001     
  -1.1000000000000001     
  -1.1030008850776303     
  -1.1000000000000001     
  -1.1000000000000001     
  -1.1000000000000001     
  -1.1000000000000001     
  -1.0000000000000000     
  -1.0000000000000000     
  -1.0000000000000000     
  -1.0000000000000000     
  -1.0018113762242964     
  -1.0000000000000000     
  -1.0000000000000000     
  -1.0000000000000000     
  -1.0000000000000000     
 -0.50000000000000000     
 -0.50000000000000000     
 -0.50000000000000000     
 -0.50000000000000000     
 -0.50000220108103977     
 -0.50000000000000000     
 -0.50000000000000000     
 -0.50000000000000000     
 -0.50000000000000000     
   0.0000000000000000     
   0.0000000000000000     
   0.0000000000000000     
   0.0000000000000000     
 -1.14451572040637747E-006
   0.0000000000000000     
   0.0000000000000000     
   0.0000000000000000     
   0.0000000000000000     
  0.50000000000000000     
  0.50000000000000000     
  0.50000000000000000     
  0.50000000000000000     
  0.49999922884166170     
  0.50000000000000000     
  0.50000000000000000     
  0.50000000000000000     
  0.50000000000000000     
   1.0000000000000000     
   1.0000000000000000     
   1.0000000000000000     
   1.0000000000000000     
  0.99999947696235769     
   1.0000000000000000     
   1.0000000000000000     
   1.0000000000000000     
   1.0000000000000000     
   2.0000000000000000     
   2.0000000000000000     
   2.0000000000000000     
   2.0000000000000000     
   1.9999997221464234     
   2.0000000000000000     
   2.0000000000000000     
   2.0000000000000000     
   2.0000000000000000     
   3.0000000000000004     
   3.0000000000000004     
   3.0000000000000004     
   3.0000000000000004     
   2.9999997895047184     
   3.0000000000000004     
   3.0000000000000004     
   3.0000000000000004     
   3.0000000000000004     
SCALARS SATURATION float
LOOKUP_TABLE default
  0.34705948956611438     
  0.34705948956611438     
  0.34705948956611438     
  0.34705948956611438     
  0.24499775763640308     
  0.34705948956611432     
  0.34705948956611438     
  0.34705948956611432     
  0.34705948956611438     
  0.34987011055248296     
  0.34987011055248302     
  0.34987011055248302     
  0.34987011055248302     
  0.25394180863920113     
  0.34987011055248302     
  0.34987011055248302     
  0.34987011055248302     
  0.34987011055248296     
  0.35278140791709894     
  0.35278140791709900     
  0.35278140791709894     
  0.35278140791709900     
  0.27232365825507643     
  0.35278140791709900     
  0.35278140791709894     
  0.35278140791709900     
  0.35278140791709894     
  0.35579970281143997     
  0.35579970281144002     
  0.35579970281144002     
  0.35579970281144002     
  0.29269220515653926     
  0.35579970281144002     
  0.35579970281144002     
  0.35579970281144002     
  0.35579970281143997     
  0.35893189187377200     
  0.35893189187377206     
  0.35893189187377200     
  0.35893189187377206     
  0.31295713475150316     
  0.35893189187377206     
  0.35893189187377200     
  0.35893189187377206     
  0.35893189187377200     
  0.36218551668681953     
  0.36218551668681959     
  0.36218551668681959     
  0.36218551668681959     
  0.32993838004166831     
  0.36218551668681959     
  0.36218551668681959     
  0.36218551668681959     
  0.36218551668681953     
  0.36556884378302607     
  0.36556884378302612     
  0.36556884378302612     
  0.36556884378302612     
  0.34412546548545730     
  0.36556884378302612     
  0.36556884378302612     
  0.36556884378302612     
  0.36556884378302607     
  0.37276186557557112     
  0.37276186557557117     
  0.37276186557557117     
  0.37276186557557117     
  0.36316921487038956     
  0.37276186557557117     
  0.37276186557557117     
  0.37276186557557117     
  0.37276186557557112     
  0.38059549922495689     
  0.38059549922495700     
  0.38059549922495695     
  0.38059549922495700     
  0.37644476988725517     
  0.38059549922495700     
  0.38059549922495695     
  0.38059549922495700     
  0.38059549922495689     
  0.38917363816444595     
  0.38917363816444606     
  0.38917363816444600     
  0.38917363816444606     
  0.38738737584593474     
  0.38917363816444606     
  0.38917363816444600     
  0.38917363816444606     
  0.38917363816444595     
  0.39862564488556396     
  0.39862564488556401     
  0.39862564488556396     
  0.39862564488556401     
  0.39780639488247760     
  0.39862564488556401     
  0.39862564488556396     
  0.39862564488556401     
  0.39862564488556396     
  0.40911501315512067     
  0.40911501315512078     
  0.40911501315512072     
  0.40911501315512078     
  0.40861223632153254     
  0.40911501315512078     
  0.40911501315512072     
  0.40911501315512078     
  0.40911501315512067     
  0.42085192652601960     
  0.42085192652601966     
  0.42085192652601960     
  0.42085192652601966     
  0.42047912099416196     
  0.42085192652601966     
  0.42085192652601960     
  0.42085192652601966     
  0.42085192652601960     
  0.43411196437317834     
  0.43411196437317839     
  0.43411196437317839     
  0.43411196437317839     
  0.43385623306787013     
  0.43411196437317839     
  0.43411196437317839     
  0.43411196437317839     
  0.43411196437317834     
  0.54315545943926802     
  0.54315545943926802     
  0.54315545943926802     
  0.54315545943926802     
  0.54315470017801160     
  0.54315545943926802     
  0.54315545943926802     
  0.54315545943926802     
  0.54315545943926802     
  0.99999999999999989     
   1.0000000000000000     
   1.0000000000000000     
   1.0000000000000000     
  0.99999996778640710     
   1.0000000000000000     
   1.0000000000000000     
   1.0000000000000000     
  0.99999999999999989     
  0.99999999999999989     
   1.0000000000000000     
   1.0000000000000000     
   1.0000000000000000     
   1.0000000000000000     
   1.0000000000000000     
   1.0000000000000000     
   1.0000000000000000     
  0.99999999999999989     
  0.99999999999999989     
   1.0000000000000000     
   1.0000000000000000     
   1.0000000000000000     
   1.0000000000000000     
   1.0000000000000000     
   1.0000000000000000     
   1.0000000000000000     
  0.99999999999999989     
  0.99999999999999989     
   1.0000000000000000     
   1.0000000000000000     
   1.0000000000000000     
   1.0000000000000000     
   1.0000000000000000     
   1.0000000000000000     
   1.0000000000000000     
  0.99999999999999989     
   1.0000000000000000     
  0.99999999999999989     
   1.0000000000000000     
  0.99999999999999989     
   1.0000000000000000     
   1.0000000000000000     
   1.0000000000000000     
   1.0000000000000000     
   1.0000000000000000     
SCALARS RDF float
LOOKUP_TABLE default
   0.0000000000000000     
   0.0000000000000000     
   0.0000000000000000     
   0.0000000000000000     
   60000.000000000000     
   0.0000000000000000     
   0.0000000000000000     
   0.0000000000000000     
   0.0000000000000000     
   0.0000000000000000     
   0.0000000000000000     
   0.0000000000000000     
   0.0000000000000000     
   41800.000000000000     
   0.0000000000000000     
   0.0000000000000000     
   0.0000000000000000     
   0.0000000000000000     
   0.0000000000000000     
   0.0000000000000000     
   0.0000000000000000     
   0.0000000000000000     
   23600.000000000000     
   0.0000000000000000     
   0.0000000000000000     
   0.0000000000000000     
   0.0000000000000000     
   0.0000000000000000     
   0.0000000000000000     
   0.0000000000000000     
   0.0000000000000000     
   16430.000000000000     
   0.0000000000000000     
   0.0000000000000000     
   0.0000000000000000     
   0.0000000000000000     
   0.0000000000000000     
   0.0000000000000000     
   0.0000000000000000     
   0.0000000000000000     
   9260.0000000000000     
   0.0000000000000000     
   0.0000000000000000     
   0.0000000000000000     
   0.0000000000000000     
   0.0000000000000000     
   0.0000000000000000     
   0.0000000000000000     
   0.0000000000000000     
   6450.0000000000000     
   0.0000000000000000     
   0.0000000000000000     
   0.0000000000000000     
   0.0000000000000000     
   0.0000000000000000     
   0.0000000000000000     
   0.0000000000000000     
   0.0000000000000000     
   3639.9999999999986     
   0.0000000000000000     
   0.0000000000000000     
   0.0000000000000000     
   0.0000000000000000     
   0.0000000000000000     
   0.0000000000000000     
   0.0000000000000000     
   0.0000000000000000     
   1430.0000000000000     
   0.0000000000000000     
   0.0000000000000000     
   0.0000000000000000     
   0.0000000000000000     
   0.0000000000000000     
   0.0000000000000000     
   0.0000000000000000     
   0.0000000000000000     
   562.00000000000000     
   0.0000000000000000     
   0.0000000000000000     
   0.0000000000000000     
   0.0000000000000000     
   0.0000000000000000     
   0.0000000000000000     
   0.0000000000000000     
   0.0000000000000000     
   220.99999999999986     
   0.0000000000000000     
   0.0000000000000000     
   0.0000000000000000     
   0.0000000000000000     
   0.0000000000000000     
   0.0000000000000000     
   0.0000000000000000     
   0.0000000000000000     
   86.799999999999997     
   0.0000000000000000     
   0.0000000000000000     
   0.0000000000000000     
   0.0000000000000000     
   0.0000000000000000     
   0.0000000000000000     
   0.0000000000000000     
   0.0000000000000000     
   86.799999999999997     
   0.0000000000000000     
   0.0000000000000000     
   0.0000000000000000     
   0.0000000000000000     
   0.0000000000000000     
   0.0000000000000000     
   0.0000000000000000     
   0.0000000000000000     
   86.799999999999997     
   0.0000000000000000     
   0.0000000000000000     
   0.0000000000000000     
   0.0000000000000000     
   0.0000000000000000     
   0.0000000000000000     
   0.0000000000000000     
   0.0000000000000000     
   86.799999999999997     
   0.0000000000000000     
   0.0000000000000000     
   0.0000000000000000     
   0.0000000000000000     
   0.0000000000000000     
   0.0000000000000000     
   0.0000000000000000     
   0.0000000000000000     
   0.0000000000000000     
   0.0000000000000000     
   0.0000000000000000     
   0.0000000000000000     
   0.0000000000000000     
   0.0000000000000000     
   0.0000000000000000     
   0.0000000000000000     
   0.0000000000000000     
   0.0000000000000000     
   0.0000000000000000     
   0.0000000000000000     
   0.0000000000000000     
   0.0000000000000000     
   0.0000000000000000     
   0.0000000000000000     
   0.0000000000000000     
   0.0000000000000000     
   0.0000000000000000     
   0.0000000000000000     
   0.0000000000000000     
   0.0000000000000000     
   0.0000000000000000     
   0.0000000000000000     
   0.0000000000000000     
   0.0000000000000000     
   0.0000000000000000     
   0.0000000000000000     
   0.0000000000000000     
   0.0000000000000000     
   0.0000000000000000     
   0.0000000000000000     
   0.0000000000000000     
   0.0000000000000000     
   0.0000000000000000     
   0.0000000000000000     
   0.0000000000000000     
   0.0000000000000000     
   0.0000000000000000     
   0.0000000000000000     
   0.0000000000000000     
   0.0000000000000000     
   0.0000000000000000     
   0.0000000000000000     
   0.0000000000000000     
   0.0000000000000000     
   0.0000000000000000     
   0.0000000000000000     
   0.0000000000000000     
   0.0000000000000000     
SCALARS TraspFlux float
LOOKUP_TABLE default
   0.0000000000000000     
   0.0000000000000000     
   0.0000000000000000     
   0.0000000000000000     
 -2.64489786161967074E-009
   0.0000000000000000     
   0.0000000000000000     
   0.0000000000000000     
   0.0000000000000000     
   0.0000000000000000     
   0.0000000000000000     
   0.0000000000000000     
   0.0000000000000000     
 -2.03212071739869411E-009
   0.0000000000000000     
   0.0000000000000000     
   0.0000000000000000     
   0.0000000000000000     
   0.0000000000000000     
   0.0000000000000000     
   0.0000000000000000     
   0.0000000000000000     
  3.91659816421367269E-010
   0.0000000000000000     
   0.0000000000000000     
   0.0000000000000000     
   0.0000000000000000     
   0.0000000000000000     
   0.0000000000000000     
   0.0000000000000000     
   0.0000000000000000     
  1.11786151264014050E-009
   0.0000000000000000     
   0.0000000000000000     
   0.0000000000000000     
   0.0000000000000000     
   0.0000000000000000     
   0.0000000000000000     
   0.0000000000000000     
   0.0000000000000000     
  9.68541245686370185E-010
   0.0000000000000000     
   0.0000000000000000     
   0.0000000000000000     
   0.0000000000000000     
   0.0000000000000000     
   0.0000000000000000     
   0.0000000000000000     
   0.0000000000000000     
  8.19130599327333136E-010
   0.0000000000000000     
   0.0000000000000000     
   0.0000000000000000     
   0.0000000000000000     
   0.0000000000000000     
   0.0000000000000000     
   0.0000000000000000     
   0.0000000000000000     
  7.71209743169014175E-010
   0.0000000000000000     
   0.0000000000000000     
   0.0000000000000000     
   0.0000000000000000     
   0.0000000000000000     
   0.0000000000000000     
   0.0000000000000000     
   0.0000000000000000     
  4.40788151612976877E-010
   0.0000000000000000     
   0.0000000000000000     
   0.0000000000000000     
   0.0000000000000000     
   0.0000000000000000     
   0.0000000000000000     
   0.0000000000000000     
   0.0000000000000000     
  1.78733558606841396E-010
   0.0000000000000000     
   0.0000000000000000     
   0.0000000000000000     
   0.0000000000000000     
   0.0000000000000000     
   0.0000000000000000     
   0.0000000000000000     
   0.0000000000000000     
  7.11046858519485217E-011
   0.0000000000000000     
   0.0000000000000000     
   0.0000000000000000     
   0.0000000000000000     
   0.0000000000000000     
   0.0000000000000000     
   0.0000000000000000     
   0.0000000000000000     
  2.80432742587730218E-011
   0.0000000000000000     
   0.0000000000000000     
   0.0000000000000000     
   0.0000000000000000     
   0.0000000000000000     
   0.0000000000000000     
   0.0000000000000000     
   0.0000000000000000     
  2.80856179749151636E-011
   0.0000000000000000     
   0.0000000000000000     
   0.0000000000000000     
   0.0000000000000000     
   0.0000000000000000     
   0.0000000000000000     
   0.0000000000000000     
   0.0000000000000000     
  2.81050493176127550E-011
   0.0000000000000000     
   0.0000000000000000     
   0.0000000000000000     
   0.0000000000000000     
   0.0000000000000000     
   0.0000000000000000     
   0.0000000000000000     
   0.0000000000000000     
  8.43606155805802936E-011
   0.0000000000000000     
   0.0000000000000000     
   0.0000000000000000     
   0.0000000000000000     
   0.0000000000000000     
   0.0000000000000000     
   0.0000000000000000     
   0.0000000000000000     
   0.0000000000000000     
   0.0000000000000000     
   0.0000000000000000     
   0.0000000000000000     
   0.0000000000000000     
   0.0000000000000000     
   0.0000000000000000     
   0.0000000000000000     
   0.0000000000000000     
   0.0000000000000000     
   0.0000000000000000     
   0.0000000000000000     
   0.0000000000000000     
   0.0000000000000000     
   0.0000000000000000     
   0.0000000000000000     
   0.0000000000000000     
   0.0000000000000000     
   0.0000000000000000     
   0.0000000000000000     
   0.0000000000000000     
   0.0000000000000000     
   0.0000000000000000     
   0.0000000000000000     
   0.0000000000000000     
   0.0000000000000000     
   0.0000000000000000     
   0.0000000000000000     
   0.0000000000000000     
   0.0000000000000000     
   0.0000000000000000     
   0.0000000000000000     
   0.0000000000000000     
   0.0000000000000000     
   0.0000000000000000     
   0.0000000000000000     
   0.0000000000000000     
   0.0000000000000000     
   0.0000000000000000     
   0.0000000000000000     
   0.0000000000000000     
   0.0000000000000000     
   0.0000000000000000     
   0.0000000000000000     
   0.0000000000000000     
   0.0000000000000000     
   0.0000000000000000     
   0.0000000000000000     
   0.0000000000000000     
   0.0000000000000000     
CELL_DATA      456
VECTORS velocity float
  -0.0000000000000000      -9.51568145176338116E-010 -3.17129135452010041E-024
  -0.0000000000000000      -5.76135387215827700E-010  5.40892741219164036E-009
  -0.0000000000000000      -9.75449339476549700E-010 -3.29326409892471969E-024
  -0.0000000000000000       -0.0000000000000000      -4.26904605416167389E-024