# vtk DataFile Version 2.0
3D Unstructured Grid of Linear Triangles
ASCII
DATASET UNSTRUCTURED_GRID
FIELD FieldData  1
TIME 1 1 double
           0.00000
POINTS      180 float
          0.0000E+00      5.0000E+00      0.0000E+00
          0.0000E+00      2.5000E+00      0.0000E+00
          0.0000E+00      0.0000E+00      0.0000E+00
          2.5000E+00      5.0000E+00      0.0000E+00
          2.5000E+00      2.5000E+00      0.0000E+00
          2.5000E+00      0.0000E+00      0.0000E+00
          5.0000E+00      5.0000E+00      0.0000E+00
          5.0000E+00      2.5000E+00      0.0000E+00
          5.0000E+00      0.0000E+00      0.0000E+00
          0.0000E+00      5.0000E+00     -5.0000E-02
          0.0000E+00      2.5000E+00     -5.0000E-02
          0.0000E+00      0.0000E+00     -5.0000E-02
          2.5000E+00      5.0000E+00     -5.0000E-02
          2.5000E+00      2.5000E+00     -5.0000E-02
          2.5000E+00      0.0000E+00     -5.0000E-02
          5.0000E+00      5.0000E+00     -5.0000E-02
          5.0000E+00      2.5000E+00     -5.0000E-02
          5.0000E+00      0.0000E+00     -5.0000E-02
          0.0000E+00      5.0000E+00     -1.0000E-01
          0.0000E+00      2.5000E+00     -1.0000E-01
          0.0000E+00      0.0000E+00     -1.0000E-01
          2.5000E+00      5.0000E+00     -1.0000E-01
          2.5000E+00      2.5000E+00     -1.0000E-01
          2.5000E+00      0.0000E+00     -1.0000E-01
          5.0000E+00      5.0000E+00     -1.0000E-01
          5.0000E+00      2.5000E+00     -1.0000E-01
          5.0000E+00      0.0000E+00     -1.0000E-01
          0.0000E+00      5.0000E+00     -1.5000E-01
          0.0000E+00      2.5000E+00     -1.5000E-01
          0.0000E+00      0.0000E+00     -1.5000E-01
          2.5000E+00      5.0000E+00     -1.5000E-01
          2.5000E+00      2.5000E+00     -1.5000E-01
          2.5000E+00      0.0000E+00     -1.5000E-01
          5.0000E+00      5.0000E+00     -1.5000E-01
          5.0000E+00      2.5000E+00     -1.5000E-01
          5.0000E+00      0.0000E+00     -1.5000E-01
          0.0000E+00      5.0000E+00     -2.0000E-01
          0.0000E+00      2.5000E+00     -2.0000E-01
          0.0000E+00      0.0000E+00     -2.0000E-01
          2.5000E+00      5.0000E+00     -2.0000E-01
          2.5000E+00      2.5000E+00     -2.0000E-01
          2.5000E+00      0.0000E+00     -2.0000E-01
          5.0000E+00      5.0000E+00     -2.0000E-01
          5.0000E+00      2.5000E+00     -2.0000E-01
          5.0000E+00      0.0000E+00     -2.0000E-01
          0.0000E+00      5.0000E+00     -2.5000E-01
          0.0000E+00      2.5000E+00     -2.5000E-01
          0.0000E+00      0.0000E+00     -2.5000E-01
          2.5000E+00      5.0000E+00     -2.5000E-01
          2.5000E+00      2.5000E+00     -2.5000E-01
          2.5000E+00      0.0000E+00     -2.5000E-01
          5.0000E+00      5.0000E+00     -2.5000E-01
          5.0000E+00      2.5000E+00     -2.5000E-01
          5.0000E+00      0.0000E+00     -2.5000E-01
          0.0000E+00      5.0000E+00     -3.0000E-01
          0.0000E+00      2.5000E+00     -3.0000E-01
          0.0000E+00      0.0000E+00     -3.0000E-01
          2.5000E+00      5.0000E+00     -3.0000E-01
          2.5000E+00      2.5000E+00     -3.0000E-01
          2.5000E+00      0.0000E+00     -3.0000E-01
          5.0000E+00      5.0000E+00     -3.0000E-01
          5.0000E+00      2.5000E+00     -3.0000E-01
          5.0000E+00      0.0000E+00     -3.0000E-01
          0.0000E+00      5.0000E+00     -4.0000E-01
          0.0000E+00      2.5000E+00     -4.0000E-01
          0.0000E+00      0.0000E+00     -4.0000E-01
          2.5000E+00      5.0000E+00     -4.0000E-01
          2.5000E+00      2.5000E+00     -4.0000E-01
          2.5000E+00      0.0000E+00     -4.0000E-01
          5.0000E+00      5.0000E+00     -4.0000E-01
          5.0000E+00      2.5000E+00     -4.0000E-01
          5.0000E+00      0.0000E+00     -4.0000E-01
          0.0000E+00      5.0000E+00     -5.0000E-01
          0.0000E+00      2.5000E+00     -5.0000E-01
          0.0000E+00      0.0000E+00     -5.0000E-01
          2.5000E+00      5.0000E+00     -5.0000E-01
          2.5000E+00      2.5000E+00     -5.0000E-01
          2.5000E+00      0.0000E+00     -5.0000E-01
          5.0000E+00      5.0000E+00     -5.0000E-01
          5.0000E+00      2.5000E+00     -5.0000E-01
          5.0000E+00      0.0000E+00     -5.0000E-01
          0.0000E+00      5.0000E+00     -6.0000E-01
          0.0000E+00      2.5000E+00     -6.0000E-01
          0.0000E+00      0.0000E+00     -6.0000E-01
          2.5000E+00      5.0000E+00     -6.0000E-01
          2.5000E+00      2.5000E+00     -6.0000E-01
          2.5000E+00      0.0000E+00     -6.0000E-01
          5.0000E+00      5.0000E+00     -6.0000E-01
          5.0000E+00      2.5000E+00     -6.0000E-01
          5.0000E+00      0.0000E+00     -6.0000E-01
          0.0000E+00      5.0000E+00     -7.0000E-01
          0.0000E+00      2.5000E+00     -7.0000E-01
          0.0000E+00      0.0000E+00     -7.0000E-01
          2.5000E+00      5.0000E+00     -7.0000E-01
          2.5000E+00      2.5000E+00     -7.0000E-01
          2.5000E+00      0.0000E+00     -7.0000E-01
          5.0000E+00      5.0000E+00     -7.0000E-01
          5.0000E+00      2.5000E+00     -7.0000E-01
          5.0000E+00      0.0000E+00     -7.0000E-01
          0.0000E+00      5.0000E+00     -8.0000E-01
          0.0000E+00      2.5000E+00     -8.0000E-01
          0.0000E+00      0.0000E+00     -8.0000E-01
          2.5000E+00      5.0000E+00     -8.0000E-01
          2.5000E+00      2.5000E+00     -8.0000E-01
          2.5000E+00      0.0000E+00     -8.0000E-01
          5.0000E+00      5.0000E+00     -8.0000E-01
          5.0000E+00      2.5000E+00     -8.0000E-01
          5.0000E+00      0.0000E+00     -8.0000E-01
          0.0000E+00      5.0000E+00     -9.0000E-01
          0.0000E+00      2.5000E+00     -9.0000E-01
          0.0000E+00      0.0000E+00     -9.0000E-01
          2.5000E+00      5.0000E+00     -9.0000E-01
          2.5000E+00      2.5000E+00     -9.0000E-01
          2.5000E+00      0.0000E+00     -9.0000E-01
          5.0000E+00      5.0000E+00     -9.0000E-01
          5.0000E+00      2.5000E+00     -9.0000E-01
          5.0000E+00      0.0000E+00     -9.0000E-01
          0.0000E+00      5.0000E+00     -1.0000E+00
          0.0000E+00      2.5000E+00     -1.0000E+00
          0.0000E+00      0.0000E+00     -1.0000E+00
          2.5000E+00      5.0000E+00     -1.0000E+00
          2.5000E+00      2.5000E+00     -1.0000E+00
          2.5000E+00      0.0000E+00     -1.0000E+00
          5.0000E+00      5.0000E+00     -1.0000E+00
          5.0000E+00      2.5000E+00     -1.0000E+00
          5.0000E+00      0.0000E+00     -1.0000E+00
          0.0000E+00      5.0000E+00     -1.5000E+00
          0.0000E+00      2.5000E+00     -1.5000E+00
          0.0000E+00      0.0000E+00     -1.5000E+00
          2.5000E+00      5.0000E+00     -1.5000E+00
          2.5000E+00      2.5000E+00     -1.5000E+00
          2.5000E+00      0.0000E+00     -1.5000E+00
          5.0000E+00      5.0000E+00     -1.5000E+00
          5.0000E+00      2.5000E+00     -1.5000E+00
          5.0000E+00      0.0000E+00     -1.5000E+00
          0.0000E+00      5.0000E+00     -2.0000E+00
          0.0000E+00      2.5000E+00     -2.0000E+00
          0.0000E+00      0.0000E+00     -2.0000E+00
          2.5000E+00      5.0000E+00     -2.0000E+00
          2.5000E+00      2.5000E+00     -2.0000E+00
          2.5000E+00      0.0000E+00     -2.0000E+00
          5.0000E+00      5.0000E+00     -2.0000E+00
          5.0000E+00      2.5000E+00     -2.0000E+00
          5.0000E+00      0.0000E+00     -2.0000E+00
          0.0000E+00      5.0000E+00     -2.5000E+00
          0.0000E+00      2.5000E+00     -2.5000E+00
          0.0000E+00      0.0000E+00     -2.5000E+00
          2.5000E+00      5.0000E+00     -2.5000E+00
          2.5000E+00      2.5000E+00     -2.5000E+00
          2.5000E+00      0.0000E+00     -2.5000E+00
          5.0000E+00      5.0000E+00     -2.5000E+00
          5.0000E+00      2.5000E+00     -2.5000E+00
          5.0000E+00      0.0000E+00     -2.5000E+00
          0.0000E+00      5.0000E+00     -3.0000E+00
          0.0000E+00      2.5000E+00     -3.0000E+00
          0.0000E+00      0.0000E+00     -3.0000E+00
          2.5000E+00      5.0000E+00     -3.0000E+00
          2.5000E+00      2.5000E+00     -3.0000E+00
          2.5000E+00      0.0000E+00     -3.0000E+00
          5.0000E+00      5.0000E+00     -3.0000E+00
          5.0000E+00      2.5000E+00     -3.0000E+00
          5.0000E+00      0.0000E+00     -3.0000E+00
          0.0000E+00      5.0000E+00     -4.0000E+00
          0.0000E+00      2.5000E+00     -4.0000E+00
          0.0000E+00      0.0000E+00     -4.0000E+00
          2.5000E+00      5.0000E+00     -4.0000E+00
          2.5000E+00      2.5000E+00     -4.0000E+00
          2.5000E+00      0.0000E+00     -4.0000E+00
          5.0000E+00      5.0000E+00     -4.0000E+00
          5.0000E+00      2.5000E+00     -4.0000E+00
          5.0000E+00      0.0000E+00     -4.0000E+00
          0.0000E+00      5.0000E+00     -5.0000E+00
          0.0000E+00      2.5000E+00     -5.0000E+00
          0.0000E+00      0.0000E+00     -5.0000E+00
          2.5000E+00      5.0000E+00     -5.0000E+00
          2.5000E+00      2.5000E+00     -5.0000E+00
          2.5000E+00      0.0000E+00     -5.0000E+00
          5.0000E+00      5.0000E+00     -5.0000E+00
          5.0000E+00      2.5000E+00     -5.0000E+00
          5.0000E+00      0.0000E+00     -5.0000E+00
CELLS      456     2280
4          0          3          4          9
4          4          9         12         13
4          3          4          9         12
4          3          6          7         12
4          7         12         15         16
[...]
POINT_DATA      180
SCALARS PRESSURE float
LOOKUP_TABLE default
  -2.0000000000000000     
  -2.0000000000000000     
  -2.0000000000000000     
  -2.0000000000000000     
  -6.7131908278364687     
  -2.0000000000000000     
  -2.0000000000000000     
  -2.0000000000000000     
  -2.0000000000000000     
  -1.9500000000000002     
  -1.9500000000000002     
  -1.9500000000000002     
  -1.9500000000000002     
  -5.9246961608968771     
  -1.9500000000000002     
  -1.9500000000000002     
  -1.9500000000000002     
  -1.9500000000000002     
  -1.8999999999999999     
  -1.8999999999999999     
  -1.8999999999999999     
  -1.8999999999999999     
  -4.6615047573892925     
  -1.8999999999999999     
  -1.8999999999999999     
  -1.8999999999999999     
  -1.8999999999999999     
  -1.8500000000000005     
  -1.8500000000000005     
  -1.8500000000000005     
  -1.8500000000000005     
  -3.6477711949649745     
  -1.8500000000000005     
  -1.8500000000000005     
  -1.8500000000000005     
  -1.8500000000000005     
  -1.8000000000000005     
  -1.8000000000000005     
  -1.8000000000000005     
  -1.8000000000000005     
  -2.9020037485041987     
  -1.8000000000000005     
  -1.8000000000000005     
  -1.8000000000000005     
  -1.8000000000000005     
  -1.7500000000000004     
  -1.7500000000000004     
  -1.7500000000000004     
  -1.7500000000000004     
  -2.4240399940763799     
  -1.7500000000000004     
  -1.7500000000000004     
  -1.7500000000000004     
  -1.7500000000000004     
  -1.7000000000000004     
  -1.7000000000000004     
  -1.7000000000000004     
  -1.7000000000000004     
  -2.1005548667051870     
  -1.7000000000000004     
  -1.7000000000000004     
  -1.7000000000000004     
  -1.7000000000000004     
  -1.6000000000000003     
  -1.6000000000000003     
  -1.6000000000000003     
  -1.6000000000000003     
  -1.7536851121147359     
  -1.6000000000000003     
  -1.6000000000000003     
  -1.6000000000000003     
  -1.6000000000000003     
  -1.5000000000000002     
  -1.5000000000000002     
  -1.5000000000000002     
  -1.5000000000000002     
  -1.5593033269256318     
  -1.5000000000000002     
  -1.5000000000000002     
  -1.5000000000000002     
  -1.5000000000000002     
  -1.3999999999999999     
  -1.3999999999999999     
  -1.3999999999999999     
  -1.3999999999999999     
  -1.4230748553200536     
  -1.3999999999999999     
  -1.3999999999999999     
  -1.3999999999999999     
  -1.3999999999999999     
  -1.2999999999999998     
  -1.2999999999999998     
  -1.2999999999999998     
  -1.2999999999999998     
  -1.3095522464634044     
  -1.2999999999999998     
  -1.2999999999999998     
  -1.2999999999999998     
  -1.2999999999999998     
  -1.2000000000000002     
  -1.2000000000000002     
  -1.2000000000000002     
  -1.2000000000000002     
  -1.2051890705046893     
  -1.2000000000000002     
  -1.2000000000000002     
  -1.2000000000000002     
  -1.2000000000000002     
  -1.1000000000000001     
  -1.1000000000000001     
  -1.1000000000000001     
  -1.1000000000000001     
  -1.1033635129830843     
  -1.1000000000000001     
  -1.1000000000000001     
  -1.1000000000000001     
  -1.1000000000000001     
  -1.0000000000000000     
  -1.0000000000000000     
  -1.0000000000000000     
  -1.0000000000000000     
  -1.0020042665606250     
  -1.0000000000000000     
  -1.0000000000000000     
  -1.0000000000000000     
  -1.0000000000000000     
 -0.50000000000000000     
 -0.50000000000000000     
 -0.50000000000000000     
 -0.50000000000000000     
 -0.50000243309032899     
 -0.50000000000000000     
 -0.50000000000000000     
 -0.50000000000000000     
 -0.50000000000000000     
   0.0000000000000000     
   0.0000000000000000     
   0.0000000000000000     
   0.0000000000000000     
 -1.26482051681387207E-006
   0.0000000000000000     
   0.0000000000000000     
   0.0000000000000000     
   0.0000000000000000     
  0.50000000000000000     
  0.50000000000000000     
  0.50000000000000000     
  0.50000000000000000     
  0.49999914784315891     
  0.50000000000000000     
  0.50000000000000000     
  0.50000000000000000     
  0.50000000000000000     
   1.0000000000000000     
   1.0000000000000000     
   1.0000000000000000     
   1.0000000000000000     
  0.99999942202777770     
   1.0000000000000000     
   1.0000000000000000     
   1.0000000000000000     
   1.0000000000000000     
   2.0000000000000000     
   2.0000000000000000     
   2.0000000000000000     
   2.0000000000000000     
   1.9999996929660093     
   2.0000000000000000     
   2.0000000000000000     
   2.0000000000000000     
   2.0000000000000000     
   3.0000000000000004     
   3.0000000000000004     
   3.0000000000000004     
   3.0000000000000004     
   2.9999997673993857     
   3.0000000000000004     
   3.0000000000000004     
   3.0000000000000004     
   3.0000000000000004     
SCALARS SATURATION float
LOOKUP_TABLE default
  0.34705948956611438     
  0.34705948956611438     
  0.34705948956611438     
  0.34705948956611438     
  0.24001596337602563     
  0.34705948956611432     
  0.34705948956611438     
  0.34705948956611432     
  0.34705948956611438     
  0.34987011055248296     
  0.34987011055248302     
  0.34987011055248302     
  0.34987011055248302     
  0.24887228795844613     
  0.34987011055248302     
  0.34987011055248302     
  0.34987011055248302     
  0.34987011055248296     
  0.35278140791709894     
  0.35278140791709900     
  0.35278140791709894     
  0.35278140791709900     
  0.26713931842677408     
  0.35278140791709900     
  0.35278140791709894     
  0.35278140791709900     
  0.35278140791709894     
  0.35579970281143997     
  0.35579970281144002     
  0.35579970281144002     
  0.35579970281144002     
  0.28768146128879624     
  0.35579970281144002     
  0.35579970281144002     
  0.35579970281144002     
  0.35579970281143997     
  0.35893189187377200     
  0.35893189187377206     
  0.35893189187377200     
  0.35893189187377206     
  0.30868650275414428     
  0.35893189187377206     
  0.35893189187377200     
  0.35893189187377206     
  0.35893189187377200     
  0.36218551668681953     
  0.36218551668681959     
  0.36218551668681959     
  0.36218551668681959     
  0.32656228735274684     
  0.36218551668681959     
  0.36218551668681959     
  0.36218551668681959     
  0.36218551668681953     
  0.36556884378302607     
  0.36556884378302612     
  0.36556884378302612     
  0.36556884378302612     
  0.34168885334600352     
  0.36556884378302612     
  0.36556884378302612     
  0.36556884378302612     
  0.36556884378302607     
  0.37276186557557112     
  0.37276186557557117     
  0.37276186557557117     
  0.37276186557557117     
  0.36194139540010462     
  0.37276186557557117     
  0.37276186557557117     
  0.37276186557557117     
  0.37276186557557112     
  0.38059549922495689     
  0.38059549922495700     
  0.38059549922495695     
  0.38059549922495700     
  0.37586720294566556     
  0.38059549922495700     
  0.38059549922495695     
  0.38059549922495700     
  0.38059549922495689     
  0.38917363816444595     
  0.38917363816444606     
  0.38917363816444600     
  0.38917363816444606     
  0.38712187485472793     
  0.38917363816444606     
  0.38917363816444600     
  0.38917363816444606     
  0.38917363816444595     
  0.39862564488556396     
  0.39862564488556401     
  0.39862564488556396     
  0.39862564488556401     
  0.39768083579352409     
  0.39862564488556401     
  0.39862564488556396     
  0.39862564488556401     
  0.39862564488556396     
  0.40911501315512067     
  0.40911501315512078     
  0.40911501315512072     
  0.40911501315512078     
  0.40854207270778031     
  0.40911501315512078     
  0.40911501315512072     
  0.40911501315512078     
  0.40911501315512067     
  0.42085192652601960     
  0.42085192652601966     
  0.42085192652601960     
  0.42085192652601966     
  0.42043416307120951     
  0.42085192652601966     
  0.42085192652601960     
  0.42085192652601966     
  0.42085192652601960     
  0.43411196437317834     
  0.43411196437317839     
  0.43411196437317839     
  0.43411196437317839     
  0.43382903694668751     
  0.43411196437317839     
  0.43411196437317839     
  0.43411196437317839     
  0.43411196437317834     
  0.54315545943926802     
  0.54315545943926802     
  0.54315545943926802     
  0.54315545943926802     
  0.54315462014682037     
  0.54315545943926802     
  0.54315545943926802     
  0.54315545943926802     
  0.54315545943926802     
  0.99999999999999989     
   1.0000000000000000     
   1.0000000000000000     
   1.0000000000000000     
  0.99999996294821325     
   1.0000000000000000     
   1.0000000000000000     
   1.0000000000000000     
  0.99999999999999989     
  0.99999999999999989     
   1.0000000000000000     
   1.0000000000000000     
   1.0000000000000000     
   1.0000000000000000     
   1.0000000000000000     
   1.0000000000000000     
   1.0000000000000000     
  0.99999999999999989     
  0.99999999999999989     
   1.0000000000000000     
   1.0000000000000000     
   1.0000000000000000     
   1.0000000000000000     
   1.0000000000000000     
   1.0000000000000000     
   1.0000000000000000     
  0.99999999999999989     
  0.99999999999999989     
   1.0000000000000000     
   1.0000000000000000     
   1.0000000000000000     
   1.0000000000000000     
   1.0000000000000000     
   1.0000000000000000     
   1.0000000000000000     
  0.99999999999999989     
   1.0000000000000000     
  0.99999999999999989     
   1.0000000000000000     
  0.99999999999999989     
   1.0000000000000000     
   1.0000000000000000     
   1.0000000000000000     
   1.0000000000000000     
   1.0000000000000000     
SCALARS RDF float
LOOKUP_TABLE default
   0.0000000000000000     
   0.0000000000000000     
   0.0000000000000000     
   0.0000000000000000     
   60000.000000000000     
   0.0000000000000000     
   0.0000000000000000     
   0.0000000000000000     
   0.0000000000000000     
   0.0000000000000000     
   0.0000000000000000     
   0.0000000000000000     
   0.0000000000000000     
   41800.000000000000     
   0.0000000000000000     
   0.0000000000000000     
   0.0000000000000000     
   0.0000000000000000     
   0.0000000000000000     
   0.0000000000000000     
   0.0000000000000000     
   0.0000000000000000     
   23600.000000000000     
   0.0000000000000000     
   0.0000000000000000     
   0.0000000000000000     
   0.0000000000000000     
   0.0000000000000000     
   0.0000000000000000     
   0.0000000000000000     
   0.0000000000000000     
   16430.000000000000     
   0.0000000000000000     
   0.0000000000000000     
   0.0000000000000000     
   0.0000000000000000     
   0.0000000000000000     
   0.0000000000000000     
   0.0000000000000000     
   0.0000000000000000     
   9260.0000000000000     
   0.0000000000000000     
   0.0000000000000000     
   0.0000000000000000     
   0.0000000000000000     
   0.0000000000000000     
   0.0000000000000000     
   0.0000000000000000     
   0.0000000000000000     
   6450.0000000000000     
   0.0000000000000000     
   0.0000000000000000     
   0.0000000000000000     
   0.0000000000000000     
   0.0000000000000000     
   0.0000000000000000     
   0.0000000000000000     
   0.0000000000000000     
   3639.9999999999986     
   0.0000000000000000     
   0.0000000000000000     
   0.0000000000000000     
   0.0000000000000000     
   0.0000000000000000     
   0.0000000000000000     
   0.0000000000000000     
   0.0000000000000000     
   1430.0000000000000     
   0.0000000000000000     
   0.0000000000000000     
   0.0000000000000000     
   0.0000000000000000     
   0.0000000000000000     
   0.0000000000000000     
   0.0000000000000000     
   0.0000000000000000     
   562.00000000000000     
   0.0000000000000000     
   0.0000000000000000     
   0.0000000000000000     
   0.0000000000000000     
   0.0000000000000000     
   0.0000000000000000     
   0.0000000000000000     
   0.0000000000000000     
   220.99999999999986     
   0.0000000000000000     
   0.0000000000000000     
   0.0000000000000000     
   0.0000000000000000     
   0.0000000000000000     
   0.0000000000000000     
   0.0000000000000000     
   0.0000000000000000     
   86.799999999999997     
   0.0000000000000000     
   0.0000000000000000     
   0.0000000000000000     
   0.0000000000000000     
   0.0000000000000000     
   0.0000000000000000     
   0.0000000000000000     
   0.0000000000000000     
   86.799999999999997     
   0.0000000000000000     
   0.0000000000000000     
   0.0000000000000000     
   0.0000000000000000     
   0.0000000000000000     
   0.0000000000000000     
   0.0000000000000000     
   0.0000000000000000     
   86.799999999999997     
   0.0000000000000000     
   0.0000000000000000     
   0.0000000000000000     
   0.0000000000000000     
   0.0000000000000000     
   0.0000000000000000     
   0.0000000000000000     
   0.0000000000000000     
   86.799999999999997     
   0.0000000000000000     
   0.0000000000000000     
   0.0000000000000000     
   0.0000000000000000     
   0.0000000000000000     
   0.0000000000000000     
   0.0000000000000000     
   0.0000000000000000     
   0.0000000000000000     
   0.0000000000000000     
   0.0000000000000000     
   0.0000000000000000     
   0.0000000000000000     
   0.0000000000000000     
   0.0000000000000000     
   0.0000000000000000     
   0.0000000000000000     
   0.0000000000000000     
   0.0000000000000000     
   0.0000000000000000     
   0.0000000000000000     
   0.0000000000000000     
   0.0000000000000000     
   0.0000000000000000     
   0.0000000000000000     
   0.0000000000000000     
   0.0000000000000000     
   0.0000000000000000     
   0.0000000000000000     
   0.0000000000000000     
   0.0000000000000000     
   0.0000000000000000     
   0.0000000000000000     
   0.0000000000000000     
   0.0000000000000000     
   0.0000000000000000     
   0.0000000000000000     
   0.0000000000000000     
   0.0000000000000000     
   0.0000000000000000     
   0.0000000000000000     
   0.0000000000000000     
   0.0000000000000000     
   0.0000000000000000     
   0.0000000000000000     
   0.0000000000000000     
   0.0000000000000000     
   0.0000000000000000     
   0.0000000000000000     
   0.0000000000000000     
   0.0000000000000000     
   0.0000000000000000     
   0.0000000000000000     
   0.0000000000000000     
   0.0000000000000000     
   0.0000000000000000     
   0.0000000000000000     
   0.0000000000000000     
SCALARS TraspFlux float
LOOKUP_TABLE default
   0.0000000000000000     
   0.0000000000000000     
   0.0000000000000000     
   0.0000000000000000     
 -2.92950164660390368E-009
   0.0000000000000000     
   0.0000000000000000     
   0.0000000000000000     
   0.0000000000000000     
   0.0000000000000000     
   0.0000000000000000     
   0.0000000000000000     
   0.0000000000000000     
 -2.26944407941532015E-009
   0.0000000000000000     
   0.0000000000000000     
   0.0000000000000000     
   0.0000000000000000     
   0.0000000000000000     
   0.0000000000000000     
   0.0000000000000000     
   0.0000000000000000     
  4.01056529066424324E-010
   0.0000000000000000     
   0.0000000000000000     
   0.0000000000000000     
   0.0000000000000000     
   0.0000000000000000     
   0.0000000000000000     
   0.0000000000000000     
   0.0000000000000000     
  1.21070487831272422E-009
   0.0000000000000000     
   0.0000000000000000     
   0.0000000000000000     
   0.0000000000000000     
   0.0000000000000000     
   0.0000000000000000     
   0.0000000000000000     
   0.0000000000000000     
  1.06166909212649751E-009
   0.0000000000000000     
   0.0000000000000000     
   0.0000000000000000     
   0.0000000000000000     
   0.0000000000000000     
   0.0000000000000000     
   0.0000000000000000     
   0.0000000000000000     
  9.02057241096204351E-010
   0.0000000000000000     
   0.0000000000000000     
   0.0000000000000000     
   0.0000000000000000     
   0.0000000000000000     
   0.0000000000000000     
   0.0000000000000000     
   0.0000000000000000     
  8.51518717143363247E-010
   0.0000000000000000     
   0.0000000000000000     
   0.0000000000000000     
   0.0000000000000000     
   0.0000000000000000     
   0.0000000000000000     
   0.0000000000000000     
   0.0000000000000000     
  4.87586898991329357E-010
   0.0000000000000000     
   0.0000000000000000     
   0.0000000000000000     
   0.0000000000000000     
   0.0000000000000000     
   0.0000000000000000     
   0.0000000000000000     
   0.0000000000000000     
  1.97855617269993250E-010
   0.0000000000000000     
   0.0000000000000000     
   0.0000000000000000     
   0.0000000000000000     
   0.0000000000000000     
   0.0000000000000000     
   0.0000000000000000     
   0.0000000000000000     
  7.87382592276184307E-011
   0.0000000000000000     
   0.0000000000000000     
   0.0000000000000000     
   0.0000000000000000     
   0.0000000000000000     
   0.0000000000000000     
   0.0000000000000000     
   0.0000000000000000     
  3.10588575470479493E-011
   0.0000000000000000     
   0.0000000000000000     
   0.0000000000000000     
   0.0000000000000000     
   0.0000000000000000     
   0.0000000000000000     
   0.0000000000000000     
   0.0000000000000000     
  3.11082440696459813E-011
   0.0000000000000000     
   0.0000000000000000     
   0.0000000000000000     
   0.0000000000000000     
   0.0000000000000000     
   0.0000000000000000     
   0.0000000000000000     
   0.0000000000000000     
  3.11308907933785263E-011
   0.0000000000000000     
   0.0000000000000000     
   0.0000000000000000     
   0.0000000000000000     
   0.0000000000000000     
   0.0000000000000000     
   0.0000000000000000     
   0.0000000000000000     
  9.34443377985047991E-011
   0.0000000000000000     
   0.0000000000000000     
   0.0000000000000000     
   0.0000000000000000     
   0.0000000000000000     
   0.0000000000000000     
   0.0000000000000000     
   0.0000000000000000     
   0.0000000000000000     
   0.0000000000000000     
   0.0000000000000000     
   0.0000000000000000     
   0.0000000000000000     
   0.0000000000000000     
   0.0000000000000000     
   0.0000000000000000     
   0.0000000000000000     
   0.0000000000000000     
   0.0000000000000000     
   0.0000000000000000     
   0.0000000000000000     
   0.0000000000000000     
   0.0000000000000000     
   0.0000000000000000     
   0.0000000000000000     
   0.0000000000000000     
   0.0000000000000000     
   0.0000000000000000     
   0.0000000000000000     
   0.0000000000000000     
   0.0000000000000000     
   0.0000000000000000     
   0.0000000000000000     
   0.0000000000000000     
   0.0000000000000000     
   0.0000000000000000     
   0.0000000000000000     
   0.0000000000000000     
   0.0000000000000000     
   0.0000000000000000     
   0.0000000000000000     
   0.0000000000000000     
   0.0000000000000000     
   0.0000000000000000     
   0.0000000000000000     
   0.0000000000000000     
   0.0000000000000000     
   0.0000000000000000     
   0.0000000000000000     
   0.0000000000000000     
   0.0000000000000000     
   0.0000000000000000     
   0.0000000000000000     
   0.0000000000000000     
   0.0000000000000000     
   0.0000000000000000     
   0.0000000000000000     
   0.0000000000000000     
CELL_DATA      456
VECTORS velocity float
  -0.0000000000000000      -1.05241062513083669E-009 -3.17129135452010041E-024
  -0.0000000000000000      -6.35177851762826534E-010  5.90077124258913097E-009
  -0.0000000000000000      -1.07887688150569315E-009 -3.29326409892471969E-024
  -0.0000000000000000       -0.0000000000000000      -4.26904605416167389E-024