# vtk DataFile Version 2.0
3D Unstructured Grid of Linear Triangles
ASCII
DATASET UNSTRUCTURED_GRID
FIELD FieldData  1
TIME 1 1 double
           0.00000
POINTS      180 float
          0.0000E+00      5.0000E+00      0.0000E+00
          0.0000E+00      2.5000E+00      0.0000E+00
          0.0000E+00      0.0000E+00      0.0000E+00
          2.5000E+00      5.0000E+00      0.0000E+00
          2.5000E+00      2.5000E+00      0.0000E+00
          2.5000E+00      0.0000E+00      0.0000E+00
          5.0000E+00      5.0000E+00      0.0000E+00
          5.0000E+00      2.5000E+00      0.0000E+00
          5.0000E+00      0.0000E+00      0.0000E+00
          0.0000E+00      5.0000E+00     -5.0000E-02
          0.0000E+00      2.5000E+00     -5.0000E-02
          0.0000E+00      0.0000E+00     -5.0000E-02
          2.5000E+00      5.0000E+00     -5.0000E-02
          2.5000E+00      2.5000E+00     -5.0000E-02
          2.5000E+00      0.0000E+00     -5.0000E-02
          5.0000E+00      5.0000E+00     -5.0000E-02
          5.0000E+00      2.5000E+00     -5.0000E-02
          5.0000E+00      0.0000E+00     -5.0000E-02
          0.0000E+00      5.0000E+00     -1.0000E-01
          0.0000E+00      2.5000E+00     -1.0000E-01
          0.0000E+00      0.0000E+00     -1.0000E-01
          2.5000E+00      5.0000E+00     -1.0000E-01
          2.5000E+00      2.5000E+00     -1.0000E-01
          2.5000E+00      0.0000E+00     -1.0000E-01
          5.0000E+00      5.0000E+00     -1.0000E-01
          5.0000E+00      2.5000E+00     -1.0000E-01
          5.0000E+00      0.0000E+00     -1.0000E-01
          0.0000E+00      5.0000E+00     -1.5000E-01
          0.0000E+00      2.5000E+00     -1.5000E-01
          0.0000E+00      0.0000E+00     -1.5000E-01
          2.5000E+00      5.0000E+00     -1.5000E-01
          2.5000E+00      2.5000E+00     -1.5000E-01
          2.5000E+00      0.0000E+00     -1.5000E-01
          5.0000E+00      5.0000E+00     -1.5000E-01
          5.0000E+00      2.5000E+00     -1.5000E-01
          5.0000E+00      0.0000E+00     -1.5000E-01
          0.0000E+00      5.0000E+00     -2.0000E-01
          0.0000E+00      2.5000E+00     -2.0000E-01
          0.0000E+00      0.0000E+00     -2.0000E-01
          2.5000E+00      5.0000E+00     -2.0000E-01
          2.5000E+00      2.5000E+00     -2.0000E-01
          2.5000E+00      0.0000E+00     -2.0000E-01
          5.0000E+00      5.0000E+00     -2.0000E-01
          5.0000E+00      2.5000E+00     -2.0000E-01
          5.0000E+00      0.0000E+00     -2.0000E-01
          0.0000E+00      5.0000E+00     -2.5000E-01
          0.0000E+00      2.5000E+00     -2.5000E-01
          0.0000E+00      0.0000E+00     -2.5000E-01
          2.5000E+00      5.0000E+00     -2.5000E-01
          2.5000E+00      2.5000E+00     -2.5000E-01
          2.5000E+00      0.0000E+00     -2.5000E-01
          5.0000E+00      5.0000E+00     -2.5000E-01
          5.0000E+00      2.5000E+00     -2.5000E-01
          5.0000E+00      0.0000E+00     -2.5000E-01
          0.0000E+00      5.0000E+00     -3.0000E-01
          0.0000E+00      2.5000E+00     -3.0000E-01
          0.0000E+00      0.0000E+00     -3.0000E-01
          2.5000E+00      5.0000E+00     -3.0000E-01
          2.5000E+00      2.5000E+00     -3.0000E-01
          2.5000E+00      0.0000E+00     -3.0000E-01
          5.0000E+00      5.0000E+00     -3.0000E-01
          5.0000E+00      2.5000E+00     -3.0000E-01
          5.0000E+00      0.0000E+00     -3.0000E-01
          0.0000E+00      5.0000E+00     -4.0000E-01
          0.0000E+00      2.5000E+00     -4.0000E-01
          0.0000E+00      0.0000E+00     -4.0000E-01
          2.5000E+00      5.0000E+00     -4.0000E-01
          2.5000E+00      2.5000E+00     -4.0000E-01
          2.5000E+00      0.0000E+00     -4.0000E-01
          5.0000E+00      5.0000E+00     -4.0000E-01
          5.0000E+00      2.5000E+00     -4.0000E-01
          5.0000E+00      0.0000E+00     -4.0000E-01
          0.0000E+00      5.0000E+00     -5.0000E-01
          0.0000E+00      2.5000E+00     -5.0000E-01
          0.0000E+00      0.0000E+00     -5.0000E-01
          2.5000E+00      5.0000E+00     -5.0000E-01
          2.5000E+00      2.5000E+00     -5.0000E-01
          2.5000E+00      0.0000E+00     -5.0000E-01
          5.0000E+00      5.0000E+00     -5.0000E-01
          5.0000E+00      2.5000E+00     -5.0000E-01
          5.0000E+00      0.0000E+00     -5.0000E-01
          0.0000E+00      5.0000E+00     -6.0000E-01
          0.0000E+00      2.5000E+00     -6.0000E-01
          0.0000E+00      0.0000E+00     -6.0000E-01
          2.5000E+00      5.0000E+00     -6.0000E-01
          2.5000E+00      2.5000E+00     -6.0000E-01
          2.5000E+00      0.0000E+00     -6.0000E-01
          5.0000E+00      5.0000E+00     -6.0000E-01
          5.0000E+00      2.5000E+00     -6.0000E-01
          5.0000E+00      0.0000E+00     -6.0000E-01
          0.0000E+00      5.0000E+00     -7.0000E-01
          0.0000E+00      2.5000E+00     -7.0000E-01
          0.0000E+00      0.0000E+00     -7.0000E-01
          2.5000E+00      5.0000E+00     -7.0000E-01
          2.5000E+00      2.5000E+00     -7.0000E-01
          2.5000E+00      0.0000E+00     -7.0000E-01
          5.0000E+00      5.0000E+00     -7.0000E-01
          5.0000E+00      2.5000E+00     -7.0000E-01
          5.0000E+00      0.0000E+00     -7.0000E-01
          0.0000E+00      5.0000E+00     -8.0000E-01
          0.0000E+00      2.5000E+00     -8.0000E-01
          0.0000E+00      0.0000E+00     -8.0000E-01
          2.5000E+00      5.0000E+00     -8.0000E-01
          2.5000E+00      2.5000E+00     -8.0000E-01
          2.5000E+00      0.0000E+00     -8.0000E-01
          5.0000E+00      5.0000E+00     -8.0000E-01
          5.0000E+00      2.5000E+00     -8.0000E-01
          5.0000E+00      0.0000E+00     -8.0000E-01
          0.0000E+00      5.0000E+00     -9.0000E-01
          0.0000E+00      2.5000E+00     -9.0000E-01
          0.0000E+00      0.0000E+00     -9.0000E-01
          2.5000E+00      5.0000E+00     -9.0000E-01
          2.5000E+00      2.5000E+00     -9.0000E-01
          2.5000E+00      0.0000E+00     -9.0000E-01
          5.0000E+00      5.0000E+00     -9.0000E-01
          5.0000E+00      2.5000E+00     -9.0000E-01
          5.0000E+00      0.0000E+00     -9.0000E-01
          0.0000E+00      5.0000E+00     -1.0000E+00
          0.0000E+00      2.5000E+00     -1.0000E+00
          0.0000E+00      0.0000E+00     -1.0000E+00
          2.5000E+00      5.0000E+00     -1.0000E+00
          2.5000E+00      2.5000E+00     -1.0000E+00
          2.5000E+00      0.0000E+00     -1.0000E+00
          5.0000E+00      5.0000E+00     -1.0000E+00
          5.0000E+00      2.5000E+00     -1.0000E+00
          5.0000E+00      0.0000E+00     -1.0000E+00
          0.0000E+00      5.0000E+00     -1.5000E+00
          0.0000E+00      2.5000E+00     -1.5000E+00
          0.0000E+00      0.0000E+00     -1.5000E+00
          2.5000E+00      5.0000E+00     -1.5000E+00
          2.5000E+00      2.5000E+00     -1.5000E+00
          2.5000E+00      0.0000E+00     -1.5000E+00
          5.0000E+00      5.0000E+00     -1.5000E+00
          5.0000E+00      2.5000E+00     -1.5000E+00
          5.0000E+00      0.0000E+00     -1.5000E+00
          0.0000E+00      5.0000E+00     -2.0000E+00
          0.0000E+00      2.5000E+00     -2.0000E+00
          0.0000E+00      0.0000E+00     -2.0000E+00
          2.5000E+00      5.0000E+00     -2.0000E+00
          2.5000E+00      2.5000E+00     -2.0000E+00
          2.5000E+00      0.0000E+00     -2.0000E+00
          5.0000E+00      5.0000E+00     -2.0000E+00
          5.0000E+00      2.5000E+00     -2.0000E+00
          5.0000E+00      0.0000E+00     -2.0000E+00
          0.0000E+00      5.0000E+00     -2.5000E+00
          0.0000E+00      2.5000E+00     -2.5000E+00
          0.0000E+00      0.0000E+00     -2.5000E+00
          2.5000E+00      5.0000E+00     -2.5000E+00
          2.5000E+00      2.5000E+00     -2.5000E+00
          2.5000E+00      0.0000E+00     -2.5000E+00
          5.0000E+00      5.0000E+00     -2.5000E+00
          5.0000E+00      2.5000E+00     -2.5000E+00
          5.0000E+00      0.0000E+00     -2.5000E+00
          0.0000E+00      5.0000E+00     -3.0000E+00
          0.0000E+00      2.5000E+00     -3.0000E+00
          0.0000E+00      0.0000E+00     -3.0000E+00
          2.5000E+00      5.0000E+00     -3.0000E+00
          2.5000E+00      2.5000E+00     -3.0000E+00
          2.5000E+00      0.0000E+00     -3.0000E+00
          5.0000E+00      5.0000E+00     -3.0000E+00
          5.0000E+00      2.5000E+00     -3.0000E+00
          5.0000E+00      0.0000E+00     -3.0000E+00
          0.0000E+00      5.0000E+00     -4.0000E+00
          0.0000E+00      2.5000E+00     -4.0000E+00
          0.0000E+00      0.0000E+00     -4.0000E+00
          2.5000E+00      5.0000E+00     -4.0000E+00
          2.5000E+00      2.5000E+00     -4.0000E+00
          2.5000E+00      0.0000E+00     -4.0000E+00
          5.0000E+00      5.0000E+00     -4.0000E+00
          5.0000E+00      2.5000E+00     -4.0000E+00
          5.0000E+00      0.0000E+00     -4.0000E+00
          0.0000E+00      5.0000E+00     -5.0000E+00
          0.0000E+00      2.5000E+00     -5.0000E+00
          0.0000E+00      0.0000E+00     -5.0000E+00
          2.5000E+00      5.0000E+00     -5.0000E+00
          2.5000E+00      2.5000E+00     -5.0000E+00
          2.5000E+00      0.0000E+00     -5.0000E+00
          5.0000E+00      5.0000E+00     -5.0000E+00
          5.0000E+00      2.5000E+00     -5.0000E+00
          5.0000E+00      0.0000E+00     -5.0000E+00
CELLS      456     2280
4          0          3          4          9
4          4          9         12         13
4          3          4          9         12
4          3          6          7         12
4          7         12         15         16
[...]
POINT_DATA      180
SCALARS PRESSURE float
LOOKUP_TABLE default
  -2.0000000000000000     
  -2.0000000000000000     
  -2.0000000000000000     
  -2.0000000000000000     
  -2.0000000000000000     
  -2.0000000000000000     
  -2.0000000000000000     
  -2.0000000000000000     
  -2.0000000000000000     
  -1.9500000000000002     
  -1.9500000000000002     
  -1.9500000000000002     
  -1.9500000000000002     
  -1.9500000000000002     
  -1.9500000000000002     
  -1.9500000000000002     
  -1.9500000000000002     
  -1.9500000000000002     
  -1.8999999999999999     
  -1.8999999999999999     
  -1.8999999999999999     
  -1.8999999999999999     
  -1.8999999999999999     
  -1.8999999999999999     
  -1.8999999999999999     
  -1.8999999999999999     
  -1.8999999999999999     
  -1.8500000000000001     
  -1.8500000000000001     
  -1.8500000000000001     
  -1.8500000000000001     
  -1.8500000000000001     
  -1.8500000000000001     
  -1.8500000000000001     
  -1.8500000000000001     
  -1.8500000000000001     
  -1.7999999999999998     
  -1.7999999999999998     
  -1.7999999999999998     
  -1.7999999999999998     
  -1.7999999999999998     
  -1.7999999999999998     
  -1.7999999999999998     
  -1.7999999999999998     
  -1.7999999999999998     
  -1.7500000000000000     
  -1.7500000000000000     
  -1.7500000000000000     
  -1.7500000000000000     
  -1.7500000000000000     
  -1.7500000000000000     
  -1.7500000000000000     
  -1.7500000000000000     
  -1.7500000000000000     
  -1.7000000000000002     
  -1.7000000000000002     
  -1.7000000000000002     
  -1.7000000000000002     
  -1.7000000000000002     
  -1.7000000000000002     
  -1.7000000000000002     
  -1.7000000000000002     
  -1.7000000000000002     
  -1.6000000000000001     
  -1.6000000000000001     
  -1.6000000000000001     
  -1.6000000000000001     
  -1.6000000000000001     
  -1.6000000000000001     
  -1.6000000000000001     
  -1.6000000000000001     
  -1.6000000000000001     
  -1.5000000000000000     
  -1.5000000000000000     
  -1.5000000000000000     
  -1.5000000000000000     
  -1.5000000000000000     
  -1.5000000000000000     
  -1.5000000000000000     
  -1.5000000000000000     
  -1.5000000000000000     
  -1.3999999999999999     
  -1.3999999999999999     
  -1.3999999999999999     
  -1.3999999999999999     
  -1.3999999999999999     
  -1.3999999999999999     
  -1.3999999999999999     
  -1.3999999999999999     
  -1.3999999999999999     
  -1.2999999999999998     
  -1.2999999999999998     
  -1.2999999999999998     
  -1.2999999999999998     
  -1.2999999999999998     
  -1.2999999999999998     
  -1.2999999999999998     
  -1.2999999999999998     
  -1.2999999999999998     
  -1.2000000000000002     
  -1.2000000000000002     
  -1.2000000000000002     
  -1.2000000000000002     
  -1.2000000000000002     
  -1.2000000000000002     
  -1.2000000000000002     
  -1.2000000000000002     
  -1.2000000000000002     
  -1.1000000000000001     
  -1.1000000000000001     
  -1.1000000000000001     
  -1.1000000000000001     
  -1.1000000000000001     
  -1.1000000000000001     
  -1.1000000000000001     
  -1.1000000000000001     
  -1.1000000000000001     
  -1.0000000000000000     
  -1.0000000000000000     
  -1.0000000000000000     
  -1.0000000000000000     
  -1.0000000000000000     
  -1.0000000000000000     
  -1.0000000000000000     
  -1.0000000000000000     
  -1.0000000000000000     
 -0.50000000000000000     
 -0.50000000000000000     
 -0.50000000000000000     
 -0.50000000000000000     
 -0.50000000000000000     
 -0.50000000000000000     
 -0.50000000000000000     
 -0.50000000000000000     
 -0.50000000000000000     
   0.0000000000000000     
   0.0000000000000000     
   0.0000000000000000     
   0.0000000000000000     
   0.0000000000000000     
   0.0000000000000000     
   0.0000000000000000     
   0.0000000000000000     
   0.0000000000000000     
  0.50000000000000000     
  0.50000000000000000     
  0.50000000000000000     
  0.50000000000000000     
  0.50000000000000000     
  0.50000000000000000     
  0.50000000000000000     
  0.50000000000000000     
  0.50000000000000000     
   1.0000000000000000     
   1.0000000000000000     
   1.0000000000000000     
   1.0000000000000000     
   1.0000000000000000     
   1.0000000000000000     
   1.0000000000000000     
   1.0000000000000000     
   1.0000000000000000     
   2.0000000000000000     
   2.0000000000000000     
   2.0000000000000000     
   2.0000000000000000     
   2.0000000000000000     
   2.0000000000000000     
   2.0000000000000000     
   2.0000000000000000     
   2.0000000000000000     
   3.0000000000000000     
   3.0000000000000000     
   3.0000000000000000     
   3.0000000000000000     
   3.0000000000000000     
   3.0000000000000000     
   3.0000000000000000     
   3.0000000000000000     
   3.0000000000000000     
SCALARS SATURATION float
LOOKUP_TABLE default
  0.34705948956611438     
  0.34705948956611438     
  0.34705948956611438     
  0.34705948956611438     
  0.34705948956611443     
  0.34705948956611432     
  0.34705948956611438     
  0.34705948956611432     
  0.34705948956611438     
  0.34987011055248296     
  0.34987011055248302     
  0.34987011055248302     
  0.34987011055248302     
  0.34987011055248307     
  0.34987011055248302     
  0.34987011055248302     
  0.34987011055248302     
  0.34987011055248296     
  0.35278140791709894     
  0.35278140791709900     
  0.35278140791709894     
  0.35278140791709900     
  0.35278140791709900     
  0.35278140791709900     
  0.35278140791709894     
  0.35278140791709900     
  0.35278140791709894     
  0.35579970281144002     
  0.35579970281144008     
  0.35579970281144008     
  0.35579970281144008     
  0.35579970281144013     
  0.35579970281144008     
  0.35579970281144008     
  0.35579970281144008     
  0.35579970281144002     
  0.35893189187377206     
  0.35893189187377211     
  0.35893189187377206     
  0.35893189187377211     
  0.35893189187377206     
  0.35893189187377211     
  0.35893189187377206     
  0.35893189187377211     
  0.35893189187377206     
  0.36218551668681959     
  0.36218551668681964     
  0.36218551668681964     
  0.36218551668681964     
  0.36218551668681964     
  0.36218551668681964     
  0.36218551668681964     
  0.36218551668681964     
  0.36218551668681959     
  0.36556884378302607     
  0.36556884378302612     
  0.36556884378302612     
  0.36556884378302612     
  0.36556884378302612     
  0.36556884378302612     
  0.36556884378302612     
  0.36556884378302612     
  0.36556884378302607     
  0.37276186557557112     
  0.37276186557557117     
  0.37276186557557117     
  0.37276186557557117     
  0.37276186557557123     
  0.37276186557557117     
  0.37276186557557117     
  0.37276186557557117     
  0.37276186557557112     
  0.38059549922495689     
  0.38059549922495700     
  0.38059549922495695     
  0.38059549922495700     
  0.38059549922495695     
  0.38059549922495700     
  0.38059549922495695     
  0.38059549922495700     
  0.38059549922495689     
  0.38917363816444595     
  0.38917363816444606     
  0.38917363816444600     
  0.38917363816444606     
  0.38917363816444606     
  0.38917363816444606     
  0.38917363816444600     
  0.38917363816444606     
  0.38917363816444595     
  0.39862564488556396     
  0.39862564488556401     
  0.39862564488556396     
  0.39862564488556401     
  0.39862564488556396     
  0.39862564488556401     
  0.39862564488556396     
  0.39862564488556401     
  0.39862564488556396     
  0.40911501315512067     
  0.40911501315512078     
  0.40911501315512072     
  0.40911501315512078     
  0.40911501315512078     
  0.40911501315512078     
  0.40911501315512072     
  0.40911501315512078     
  0.40911501315512067     
  0.42085192652601960     
  0.42085192652601966     
  0.42085192652601960     
  0.42085192652601966     
  0.42085192652601966     
  0.42085192652601966     
  0.42085192652601960     
  0.42085192652601966     
  0.42085192652601960     
  0.43411196437317834     
  0.43411196437317839     
  0.43411196437317839     
  0.43411196437317839     
  0.43411196437317845     
  0.43411196437317839     
  0.43411196437317839     
  0.43411196437317839     
  0.43411196437317834     
  0.54315545943926802     
  0.54315545943926802     
  0.54315545943926802     
  0.54315545943926802     
  0.54315545943926802     
  0.54315545943926802     
  0.54315545943926802     
  0.54315545943926802     
  0.54315545943926802     
  0.99999999999999989     
   1.0000000000000000     
   1.0000000000000000     
   1.0000000000000000     
   1.0000000000000000     
   1.0000000000000000     
   1.0000000000000000     
   1.0000000000000000     
  0.99999999999999989     
  0.99999999999999989     
   1.0000000000000000     
   1.0000000000000000     
   1.0000000000000000     
   1.0000000000000000     
   1.0000000000000000     
   1.0000000000000000     
   1.0000000000000000     
  0.99999999999999989     
  0.99999999999999989     
   1.0000000000000000     
   1.0000000000000000     
   1.0000000000000000     
   1.0000000000000000     
   1.0000000000000000     
   1.0000000000000000     
   1.0000000000000000     
  0.99999999999999989     
  0.99999999999999989     
   1.0000000000000000     
   1.0000000000000000     
   1.0000000000000000     
   1.0000000000000000     
   1.0000000000000000     
   1.0000000000000000     
   1.0000000000000000     
  0.99999999999999989     
   1.0000000000000000     
  0.99999999999999989     
   1.0000000000000000     
  0.99999999999999989     
   1.0000000000000000     
   1.0000000000000000     
   1.0000000000000000     
   1.0000000000000000     
   1.0000000000000000     
SCALARS RDF float
LOOKUP_TABLE default
   0.0000000000000000     
   0.0000000000000000     
   0.0000000000000000     
   0.0000000000000000     
   60000.000000000000     
   0.0000000000000000     
   0.0000000000000000     
   0.0000000000000000     
   0.0000000000000000     
   0.0000000000000000     
   0.0000000000000000     
   0.0000000000000000     
   0.0000000000000000     
   41800.000000000000     
   0.0000000000000000     
   0.0000000000000000     
   0.0000000000000000     
   0.0000000000000000     
   0.0000000000000000     
   0.0000000000000000     
   0.0000000000000000     
   0.0000000000000000     
   23600.000000000000     
   0.0000000000000000     
   0.0000000000000000     
   0.0000000000000000     
   0.0000000000000000     
   0.0000000000000000     
   0.0000000000000000     
   0.0000000000000000     
   0.0000000000000000     
   16430.000000000000     
   0.0000000000000000     
   0.0000000000000000     
   0.0000000000000000     
   0.0000000000000000     
   0.0000000000000000     
   0.0000000000000000     
   0.0000000000000000     
   0.0000000000000000     
   9260.0000000000000     
   0.0000000000000000     
   0.0000000000000000     
   0.0000000000000000     
   0.0000000000000000     
   0.0000000000000000     
   0.0000000000000000     
   0.0000000000000000     
   0.0000000000000000     
   6450.0000000000000     
   0.0000000000000000     
   0.0000000000000000     
   0.0000000000000000     
   0.0000000000000000     
   0.0000000000000000     
   0.0000000000000000     
   0.0000000000000000     
   0.0000000000000000     
   3639.9999999999986     
   0.0000000000000000     
   0.0000000000000000     
   0.0000000000000000     
   0.0000000000000000     
   0.0000000000000000     
   0.0000000000000000     
   0.0000000000000000     
   0.0000000000000000     
   1430.0000000000000     
   0.0000000000000000     
   0.0000000000000000     
   0.0000000000000000     
   0.0000000000000000     
   0.0000000000000000     
   0.0000000000000000     
   0.0000000000000000     
   0.0000000000000000     
   562.00000000000000     
   0.0000000000000000     
   0.0000000000000000     
   0.0000000000000000     
   0.0000000000000000     
   0.0000000000000000     
   0.0000000000000000     
   0.0000000000000000     
   0.0000000000000000     
   220.99999999999986     
   0.0000000000000000     
   0.0000000000000000     
   0.0000000000000000     
   0.0000000000000000     
   0.0000000000000000     
   0.0000000000000000     
   0.0000000000000000     
   0.0000000000000000     
   86.799999999999997     
   0.0000000000000000     
   0.0000000000000000     
   0.0000000000000000     
   0.0000000000000000     
   0.0000000000000000     
   0.0000000000000000     
   0.0000000000000000     
   0.0000000000000000     
   86.799999999999997     
   0.0000000000000000     
   0.0000000000000000     
   0.0000000000000000     
   0.0000000000000000     
   0.0000000000000000     
   0.0000000000000000     
   0.0000000000000000     
   0.0000000000000000     
   86.799999999999997     
   0.0000000000000000     
   0.0000000000000000     
   0.0000000000000000     
   0.0000000000000000     
   0.0000000000000000     
   0.0000000000000000     
   0.0000000000000000     
   0.0000000000000000     
   86.799999999999997     
   0.0000000000000000     
   0.0000000000000000     
   0.0000000000000000     
   0.0000000000000000     
   0.0000000000000000     
   0.0000000000000000     
   0.0000000000000000     
   0.0000000000000000     
   0.0000000000000000     
   0.0000000000000000     
   0.0000000000000000     
   0.0000000000000000     
   0.0000000000000000     
   0.0000000000000000     
   0.0000000000000000     
   0.0000000000000000     
   0.0000000000000000     
   0.0000000000000000     
   0.0000000000000000     
   0.0000000000000000     
   0.0000000000000000     
   0.0000000000000000     
   0.0000000000000000     
   0.0000000000000000     
   0.0000000000000000     
   0.0000000000000000     
   0.0000000000000000     
   0.0000000000000000     
   0.0000000000000000     
   0.0000000000000000     
   0.0000000000000000     
   0.0000000000000000     
   0.0000000000000000     
   0.0000000000000000     
   0.0000000000000000     
   0.0000000000000000     
   0.0000000000000000     
   0.0000000000000000     
   0.0000000000000000     
   0.0000000000000000     
   0.0000000000000000     
   0.0000000000000000     
   0.0000000000000000     
   0.0000000000000000     
   0.0000000000000000     
   0.0000000000000000     
   0.0000000000000000     
   0.0000000000000000     
   0.0000000000000000     
   0.0000000000000000     
   0.0000000000000000     
   0.0000000000000000     
   0.0000000000000000     
   0.0000000000000000     
   0.0000000000000000     
   0.0000000000000000     
   0.0000000000000000     
   0.0000000000000000     
SCALARS TraspFlux float
LOOKUP_TABLE default
   0.0000000000000000     
   0.0000000000000000     
   0.0000000000000000     
   0.0000000000000000     
   0.0000000000000000     
   0.0000000000000000     
   0.0000000000000000     
   0.0000000000000000     
   0.0000000000000000     
   0.0000000000000000     
   0.0000000000000000     
   0.0000000000000000     
   0.0000000000000000     
   0.0000000000000000     
   0.0000000000000000     
   0.0000000000000000     
   0.0000000000000000     
   0.0000000000000000     
   0.0000000000000000     
   0.0000000000000000     
   0.0000000000000000     
   0.0000000000000000     
   0.0000000000000000     
   0.0000000000000000     
   0.0000000000000000     
   0.0000000000000000     
   0.0000000000000000     
   0.0000000000000000     
   0.0000000000000000     
   0.0000000000000000     
   0.0000000000000000     
   0.0000000000000000     
   0.0000000000000000     
   0.0000000000000000     
   0.0000000000000000     
   0.0000000000000000     
   0.0000000000000000     
   0.0000000000000000     
   0.0000000000000000     
   0.0000000000000000     
   0.0000000000000000     
   0.0000000000000000     
   0.0000000000000000     
   0.0000000000000000     
   0.0000000000000000     
   0.0000000000000000     
   0.0000000000000000     
   0.0000000000000000     
   0.0000000000000000     
   0.0000000000000000     
   0.0000000000000000     
   0.0000000000000000     
   0.0000000000000000     
   0.0000000000000000     
   0.0000000000000000     
   0.0000000000000000     
   0.0000000000000000     
   0.0000000000000000     
   0.0000000000000000     
   0.0000000000000000     
   0.0000000000000000     
   0.0000000000000000     
   0.0000000000000000     
   0.0000000000000000     
   0.0000000000000000     
   0.0000000000000000     
   0.0000000000000000     
   0.0000000000000000     
   0.0000000000000000     
   0.0000000000000000     
   0.0000000000000000     
   0.0000000000000000     
   0.0000000000000000     
   0.0000000000000000     
   0.0000000000000000     
   0.0000000000000000     
   0.0000000000000000     
   0.0000000000000000     
   0.0000000000000000     
   0.0000000000000000     
   0.0000000000000000     
   0.0000000000000000     
   0.0000000000000000     
   0.0000000000000000     
   0.0000000000000000     
   0.0000000000000000     
   0.0000000000000000     
   0.0000000000000000     
   0.0000000000000000     
   0.0000000000000000     
   0.0000000000000000     
   0.0000000000000000     
   0.0000000000000000     
   0.0000000000000000     
   0.0000000000000000     
   0.0000000000000000     
   0.0000000000000000     
   0.0000000000000000     
   0.0000000000000000     
   0.0000000000000000     
   0.0000000000000000     
   0.0000000000000000     
   0.0000000000000000     
   0.0000000000000000     
   0.0000000000000000     
   0.0000000000000000     
   0.0000000000000000     
   0.0000000000000000     
   0.0000000000000000     
   0.0000000000000000     
   0.0000000000000000     
   0.0000000000000000     
   0.0000000000000000     
   0.0000000000000000     
   0.0000000000000000     
   0.0000000000000000     
   0.0000000000000000     
   0.0000000000000000     
   0.0000000000000000     
   0.0000000000000000     
   0.0000000000000000     
   0.0000000000000000     
   0.0000000000000000     
   0.0000000000000000     
   0.0000000000000000     
   0.0000000000000000     
   0.0000000000000000     
   0.0000000000000000     
   0.0000000000000000     
   0.0000000000000000     
   0.0000000000000000     
   0.0000000000000000     
   0.0000000000000000     
   0.0000000000000000     
   0.0000000000000000     
   0.0000000000000000     
   0.0000000000000000     
   0.0000000000000000     
   0.0000000000000000     
   0.0000000000000000     
   0.0000000000000000     
   0.0000000000000000     
   0.0000000000000000     
   0.0000000000000000     
   0.0000000000000000     
   0.0000000000000000     
   0.0000000000000000     
   0.0000000000000000     
   0.0000000000000000     
   0.0000000000000000     
   0.0000000000000000     
   0.0000000000000000     
   0.0000000000000000     
   0.0000000000000000     
   0.0000000000000000     
   0.0000000000000000     
   0.0000000000000000     
   0.0000000000000000     
   0.0000000000000000     
   0.0000000000000000     
   0.0000000000000000     
   0.0000000000000000     
   0.0000000000000000     
   0.0000000000000000     
   0.0000000000000000     
   0.0000000000000000     
   0.0000000000000000     
   0.0000000000000000     
   0.0000000000000000     
   0.0000000000000000     
   0.0000000000000000     
   0.0000000000000000     
   0.0000000000000000     
   0.0000000000000000     
   0.0000000000000000     
   0.0000000000000000     
   0.0000000000000000     
   0.0000000000000000     
   0.0000000000000000     
   0.0000000000000000     
CELL_DATA      456
VECTORS velocity float
  -0.0000000000000000       -0.0000000000000000      -4.26904605416167389E-024
  -0.0000000000000000       -0.0000000000000000      -4.39101879856629316E-024
  -0.0000000000000000       -0.0000000000000000      -4.26904605416167389E-024
  -0.0000000000000000       -0.0000000000000000      -4.26904605416167389E-024